 Entering Gaussian System, Link 0=g09
 Input=4.com
 Output=4.log
 Initial command:
 /usr/local/Dist/g09/l1.exe "/scratch/washcoll/sarradondo/Gau-27608.inp" -scrdir="/scratch/washcoll/sarradondo/"
 Entering Link 1 = /usr/local/Dist/g09/l1.exe PID=     27609.
  
 Copyright (c) 1988,1990,1992,1993,1995,1998,2003,2009,2013,
            Gaussian, Inc.  All Rights Reserved.
  
 This is part of the Gaussian(R) 09 program.  It is based on
 the Gaussian(R) 03 system (copyright 2003, Gaussian, Inc.),
 the Gaussian(R) 98 system (copyright 1998, Gaussian, Inc.),
 the Gaussian(R) 94 system (copyright 1995, Gaussian, Inc.),
 the Gaussian 92(TM) system (copyright 1992, Gaussian, Inc.),
 the Gaussian 90(TM) system (copyright 1990, Gaussian, Inc.),
 the Gaussian 88(TM) system (copyright 1988, Gaussian, Inc.),
 the Gaussian 86(TM) system (copyright 1986, Carnegie Mellon
 University), and the Gaussian 82(TM) system (copyright 1983,
 Carnegie Mellon University). Gaussian is a federally registered
 trademark of Gaussian, Inc.
  
 This software contains proprietary and confidential information,
 including trade secrets, belonging to Gaussian, Inc.
  
 This software is provided under written license and may be
 used, copied, transmitted, or stored only in accord with that
 written license.
  
 The following legend is applicable only to US Government
 contracts under FAR:
  
                    RESTRICTED RIGHTS LEGEND
  
 Use, reproduction and disclosure by the US Government is
 subject to restrictions as set forth in subparagraphs (a)
 and (c) of the Commercial Computer Software - Restricted
 Rights clause in FAR 52.227-19.
  
 Gaussian, Inc.
 340 Quinnipiac St., Bldg. 40, Wallingford CT 06492
  
  
 ---------------------------------------------------------------
 Warning -- This program may not be used in any manner that
 competes with the business of Gaussian, Inc. or will provide
 assistance to any competitor of Gaussian, Inc.  The licensee
 of this program is prohibited from giving any competitor of
 Gaussian, Inc. access to this program.  By using this program,
 the user acknowledges that Gaussian, Inc. is engaged in the
 business of creating and licensing software in the field of
 computational chemistry and represents and warrants to the
 licensee that it is not a competitor of Gaussian, Inc. and that
 it will not use this program in any manner prohibited above.
 ---------------------------------------------------------------
  

 Cite this work as:
 Gaussian 09, Revision D.01,
 M. J. Frisch, G. W. Trucks, H. B. Schlegel, G. E. Scuseria, 
 M. A. Robb, J. R. Cheeseman, G. Scalmani, V. Barone, B. Mennucci, 
 G. A. Petersson, H. Nakatsuji, M. Caricato, X. Li, H. P. Hratchian, 
 A. F. Izmaylov, J. Bloino, G. Zheng, J. L. Sonnenberg, M. Hada, 
 M. Ehara, K. Toyota, R. Fukuda, J. Hasegawa, M. Ishida, T. Nakajima, 
 Y. Honda, O. Kitao, H. Nakai, T. Vreven, J. A. Montgomery, Jr., 
 J. E. Peralta, F. Ogliaro, M. Bearpark, J. J. Heyd, E. Brothers, 
 K. N. Kudin, V. N. Staroverov, T. Keith, R. Kobayashi, J. Normand, 
 K. Raghavachari, A. Rendell, J. C. Burant, S. S. Iyengar, J. Tomasi, 
 M. Cossi, N. Rega, J. M. Millam, M. Klene, J. E. Knox, J. B. Cross, 
 V. Bakken, C. Adamo, J. Jaramillo, R. Gomperts, R. E. Stratmann, 
 O. Yazyev, A. J. Austin, R. Cammi, C. Pomelli, J. W. Ochterski, 
 R. L. Martin, K. Morokuma, V. G. Zakrzewski, G. A. Voth, 
 P. Salvador, J. J. Dannenberg, S. Dapprich, A. D. Daniels, 
 O. Farkas, J. B. Foresman, J. V. Ortiz, J. Cioslowski, 
 and D. J. Fox, Gaussian, Inc., Wallingford CT, 2013.
 
 ******************************************
 Gaussian 09:  ES64L-G09RevD.01 24-Apr-2013
                10-Apr-2020 
 ******************************************
 %nproc=4
 Will use up to    4 processors via shared memory.
 %chk=OAC.chk
 Default route:  MaxDisk=700GB
 ----------------------------------------------------------------------
 #N M062X/aug-cc-pvdz OPT(tight) 5d 7f int(grid=ultrafine, exactbasistr
 ansform) scf(conver=10)
 ----------------------------------------------------------------------
 1/7=10,14=-1,18=20,19=15,26=4,38=1/1,3;
 2/9=110,12=2,17=6,18=5,40=1/2;
 3/5=16,7=10,8=11,11=2,16=1,25=1,30=1,60=1,71=1,74=-55,75=-5/1,2,3;
 4//1;
 5/5=2,6=10,38=5/2;
 6/7=2,8=2,9=2,10=2,28=1/1;
 7//1,2,3,16;
 1/7=10,14=-1,18=20,19=15,26=4/3(2);
 2/9=110/2;
 99//99;
 2/9=110/2;
 3/5=16,7=10,8=11,11=2,16=1,25=1,30=1,60=1,71=1,74=-55,75=-5/1,2,3;
 4/5=5,16=3,69=1/1;
 5/5=2,6=10,38=5/2;
 7//1,2,3,16;
 1/7=10,14=-1,18=20,19=15,26=4/3(-5);
 2/9=110/2;
 6/7=2,8=2,9=2,10=2,19=2,28=1/1;
 99/9=1/99;
 -------
 Acetate
 -------
 Symbolic Z-matrix:
 Charge = -1 Multiplicity = 3
 C                     0.        1.42054  -1.86553 
 C                    -0.72172   0.17048  -1.35519 
 O                    -0.72172   0.17048   0.05481 
 O                    -0.05704  -0.98078  -1.82519 
 H                     0.        1.42054  -2.96153 
 H                     1.03332   1.42054  -1.50019 
 H                    -0.51666   2.31542  -1.50019 
 

 GradGradGradGradGradGradGradGradGradGradGradGradGradGradGradGradGradGrad
 Berny optimization.
 Initialization pass.
                           ----------------------------
                           !    Initial Parameters    !
                           ! (Angstroms and Degrees)  !
 --------------------------                            --------------------------
 ! Name  Definition              Value          Derivative Info.                !
 --------------------------------------------------------------------------------
 ! R1    R(1,2)                  1.531          estimate D2E/DX2                !
 ! R2    R(1,5)                  1.096          estimate D2E/DX2                !
 ! R3    R(1,6)                  1.096          estimate D2E/DX2                !
 ! R4    R(1,7)                  1.096          estimate D2E/DX2                !
 ! R5    R(2,3)                  1.41           estimate D2E/DX2                !
 ! R6    R(2,4)                  1.41           estimate D2E/DX2                !
 ! A1    A(2,1,5)              109.4712         estimate D2E/DX2                !
 ! A2    A(2,1,6)              109.4712         estimate D2E/DX2                !
 ! A3    A(2,1,7)              109.4712         estimate D2E/DX2                !
 ! A4    A(5,1,6)              109.4713         estimate D2E/DX2                !
 ! A5    A(5,1,7)              109.4712         estimate D2E/DX2                !
 ! A6    A(6,1,7)              109.4712         estimate D2E/DX2                !
 ! A7    A(1,2,3)              109.4712         estimate D2E/DX2                !
 ! A8    A(1,2,4)              109.4713         estimate D2E/DX2                !
 ! A9    A(3,2,4)              109.4712         estimate D2E/DX2                !
 ! D1    D(5,1,2,3)           -180.0            estimate D2E/DX2                !
 ! D2    D(5,1,2,4)             60.0            estimate D2E/DX2                !
 ! D3    D(6,1,2,3)             60.0            estimate D2E/DX2                !
 ! D4    D(6,1,2,4)            -60.0            estimate D2E/DX2                !
 ! D5    D(7,1,2,3)            -60.0            estimate D2E/DX2                !
 ! D6    D(7,1,2,4)            180.0            estimate D2E/DX2                !
 --------------------------------------------------------------------------------
 Trust Radius=3.00D-01 FncErr=1.00D-07 GrdErr=1.00D-06
 Number of steps in this run=     31 maximum allowed number of steps=    100.
 GradGradGradGradGradGradGradGradGradGradGradGradGradGradGradGradGradGrad

                          Input orientation:                          
 ---------------------------------------------------------------------
 Center     Atomic      Atomic             Coordinates (Angstroms)
 Number     Number       Type             X           Y           Z
 ---------------------------------------------------------------------
      1          6           0        0.000001    1.420538   -1.865526
      2          6           0       -0.721719    0.170482   -1.355193
      3          8           0       -0.721720    0.170482    0.054807
      4          8           0       -0.057040   -0.980779   -1.825192
      5          1           0        0.000001    1.420538   -2.961526
      6          1           0        1.033320    1.420538   -1.500192
      7          1           0       -0.516658    2.315418   -1.500192
 ---------------------------------------------------------------------
                    Distance matrix (angstroms):
                    1          2          3          4          5
     1  C    0.000000
     2  C    1.531000   0.000000
     3  O    2.402332   1.410000   0.000000
     4  O    2.402333   1.410000   2.302520   0.000000
     5  H    1.096000   2.159590   3.343918   2.657222   0.000000
     6  H    1.096000   2.159590   2.657221   2.657223   1.789761
     7  H    1.096000   2.159590   2.657222   3.343918   1.789760
                    6          7
     6  H    0.000000
     7  H    1.789761   0.000000
 Stoichiometry    C2H3O2(1-,3)
 Framework group  C1[X(C2H3O2)]
 Deg. of freedom    15
 Full point group                 C1      NOp   1
 Largest Abelian subgroup         C1      NOp   1
 Largest concise Abelian subgroup C1      NOp   1
                         Standard orientation:                         
 ---------------------------------------------------------------------
 Center     Atomic      Atomic             Coordinates (Angstroms)
 Number     Number       Type             X           Y           Z
 ---------------------------------------------------------------------
      1          6           0        1.337114   -0.000002    0.059881
      2          6           0       -0.123704    0.000000   -0.398346
      3          8           0       -0.771096    1.151261    0.095194
      4          8           0       -0.771099   -1.151259    0.095195
      5          1           0        1.840335   -0.894882   -0.323750
      6          1           0        1.376429   -0.000001    1.155176
      7          1           0        1.840337    0.894878   -0.323751
 ---------------------------------------------------------------------
 Rotational constants (GHZ):     10.5731942      9.5790716      5.4349150
 Standard basis: Aug-CC-pVDZ (5D, 7F)
 There are   127 symmetry adapted cartesian basis functions of A   symmetry.
 There are   119 symmetry adapted basis functions of A   symmetry.
   119 basis functions,   205 primitive gaussians,   127 cartesian basis functions
    17 alpha electrons       15 beta electrons
       nuclear repulsion energy       107.2207614386 Hartrees.
 NAtoms=    7 NActive=    7 NUniq=    7 SFac= 1.00D+00 NAtFMM=   60 NAOKFM=F Big=F
 Integral buffers will be    131072 words long.
 Raffenetti 2 integral format.
 Two-electron integral symmetry is turned on.
 One-electron integrals computed using PRISM.
 NBasis=   119 RedAO= T EigKep=  2.34D-04  NBF=   119
 NBsUse=   119 1.00D-06 EigRej= -1.00D+00 NBFU=   119
 ExpMin= 2.97D-02 ExpMax= 1.17D+04 ExpMxC= 4.01D+02 IAcc=3 IRadAn=         5 AccDes= 0.00D+00
 Harris functional with IExCor= 1009 and IRadAn=       5 diagonalized for initial guess.
 HarFok:  IExCor= 1009 AccDes= 0.00D+00 IRadAn=         5 IDoV= 1 UseB2=F ITyADJ=14
 ICtDFT=  3500011 ScaDFX=  1.000000  1.000000  1.000000  1.000000
 FoFCou: FMM=F IPFlag=           0 FMFlag=      100000 FMFlg1=           0
         NFxFlg=           0 DoJE=T BraDBF=F KetDBF=T FulRan=T
         wScrn=  0.000000 ICntrl=     500 IOpCl=  0 I1Cent=   200000004 NGrid=           0
         NMat0=    1 NMatS0=      1 NMatT0=    0 NMatD0=    1 NMtDS0=    0 NMtDT0=    0
 Petite list used in FoFCou.
 Initial guess <Sx>= 0.0000 <Sy>= 0.0000 <Sz>= 1.0000 <S**2>= 2.0000 S= 1.0000
 Keep R1 and R2 ints in memory in canonical form, NReq=52103897.
 Requested convergence on RMS density matrix=1.00D-10 within 128 cycles.
 Requested convergence on MAX density matrix=1.00D-08.
 Requested convergence on             energy=1.00D-08.
 No special actions if energy rises.
 SCF Done:  E(UM062X) =  -228.298316303     A.U. after   28 cycles
            NFock= 28  Conv=0.79D-10     -V/T= 2.0070
 <Sx>= 0.0000 <Sy>= 0.0000 <Sz>= 1.0000 <S**2>= 2.0186 S= 1.0062
 <L.S>= 0.000000000000E+00
 Annihilation of the first spin contaminant:
 S**2 before annihilation     2.0186,   after     2.0001

 **********************************************************************

            Population analysis using the SCF density.

 **********************************************************************

 Orbital symmetries:
 Alpha Orbitals:
       Occupied  (A) (A) (A) (A) (A) (A) (A) (A) (A) (A) (A) (A)
                 (A) (A) (A) (A) (A)
       Virtual   (A) (A) (A) (A) (A) (A) (A) (A) (A) (A) (A) (A)
                 (A) (A) (A) (A) (A) (A) (A) (A) (A) (A) (A) (A)
                 (A) (A) (A) (A) (A) (A) (A) (A) (A) (A) (A) (A)
                 (A) (A) (A) (A) (A) (A) (A) (A) (A) (A) (A) (A)
                 (A) (A) (A) (A) (A) (A) (A) (A) (A) (A) (A) (A)
                 (A) (A) (A) (A) (A) (A) (A) (A) (A) (A) (A) (A)
                 (A) (A) (A) (A) (A) (A) (A) (A) (A) (A) (A) (A)
                 (A) (A) (A) (A) (A) (A) (A) (A) (A) (A) (A) (A)
                 (A) (A) (A) (A) (A) (A)
 Beta  Orbitals:
       Occupied  (A) (A) (A) (A) (A) (A) (A) (A) (A) (A) (A) (A)
                 (A) (A) (A)
       Virtual   (A) (A) (A) (A) (A) (A) (A) (A) (A) (A) (A) (A)
                 (A) (A) (A) (A) (A) (A) (A) (A) (A) (A) (A) (A)
                 (A) (A) (A) (A) (A) (A) (A) (A) (A) (A) (A) (A)
                 (A) (A) (A) (A) (A) (A) (A) (A) (A) (A) (A) (A)
                 (A) (A) (A) (A) (A) (A) (A) (A) (A) (A) (A) (A)
                 (A) (A) (A) (A) (A) (A) (A) (A) (A) (A) (A) (A)
                 (A) (A) (A) (A) (A) (A) (A) (A) (A) (A) (A) (A)
                 (A) (A) (A) (A) (A) (A) (A) (A) (A) (A) (A) (A)
                 (A) (A) (A) (A) (A) (A) (A) (A)
 The electronic state is 3-A.
 Alpha  occ. eigenvalues --  -19.44365 -19.44363 -10.41699 -10.35832  -0.93216
 Alpha  occ. eigenvalues --   -0.84940  -0.62681  -0.42387  -0.32267  -0.31776
 Alpha  occ. eigenvalues --   -0.29955  -0.25550  -0.24844  -0.18718  -0.15767
 Alpha  occ. eigenvalues --   -0.15378  -0.00999
 Alpha virt. eigenvalues --    0.11911   0.12913   0.14482   0.17708   0.21206
 Alpha virt. eigenvalues --    0.21223   0.22660   0.24807   0.25029   0.27279
 Alpha virt. eigenvalues --    0.31931   0.32380   0.35267   0.36416   0.36707
 Alpha virt. eigenvalues --    0.39675   0.39713   0.41224   0.41273   0.42877
 Alpha virt. eigenvalues --    0.45016   0.45832   0.49564   0.50480   0.51430
 Alpha virt. eigenvalues --    0.56043   0.58458   0.58793   0.59269   0.61146
 Alpha virt. eigenvalues --    0.61869   0.64289   0.66966   0.67909   0.72421
 Alpha virt. eigenvalues --    0.72520   0.73814   0.76389   0.80803   0.81236
 Alpha virt. eigenvalues --    0.84227   0.84814   0.85694   0.92242   0.96910
 Alpha virt. eigenvalues --    0.98691   1.08865   1.09455   1.12079   1.13151
 Alpha virt. eigenvalues --    1.17787   1.21105   1.23755   1.25710   1.27738
 Alpha virt. eigenvalues --    1.29053   1.29173   1.31681   1.35932   1.42623
 Alpha virt. eigenvalues --    1.43305   1.47593   1.49004   1.64659   1.67384
 Alpha virt. eigenvalues --    1.70225   1.73347   1.75522   1.79562   1.84471
 Alpha virt. eigenvalues --    1.85010   1.94485   1.97935   2.00574   2.06468
 Alpha virt. eigenvalues --    2.10105   2.11770   2.14819   2.15193   2.18879
 Alpha virt. eigenvalues --    2.26118   2.26292   2.30745   2.42117   2.56833
 Alpha virt. eigenvalues --    2.61938   2.67545   2.70291   2.82949   2.85287
 Alpha virt. eigenvalues --    2.99371   3.04235   3.58136   3.58334   3.59630
 Alpha virt. eigenvalues --    3.62717   3.65555   3.67956   3.72488   3.72623
 Alpha virt. eigenvalues --    3.74046   3.85261
  Beta  occ. eigenvalues --  -19.42993 -19.42992 -10.41130 -10.35746  -0.88741
  Beta  occ. eigenvalues --   -0.79381  -0.61746  -0.38987  -0.30455  -0.29807
  Beta  occ. eigenvalues --   -0.26377  -0.23198  -0.16076  -0.11737  -0.10139
  Beta virt. eigenvalues --    0.10277   0.12338   0.14349   0.15285   0.16691
  Beta virt. eigenvalues --    0.19918   0.20923   0.21097   0.22402   0.23638
  Beta virt. eigenvalues --    0.24167   0.27516   0.30178   0.30830   0.35093
  Beta virt. eigenvalues --    0.36027   0.36307   0.39326   0.39622   0.40485
  Beta virt. eigenvalues --    0.41582   0.44014   0.44589   0.46285   0.48872
  Beta virt. eigenvalues --    0.50302   0.51321   0.55791   0.57651   0.59322
  Beta virt. eigenvalues --    0.60064   0.60996   0.61301   0.64781   0.66877
  Beta virt. eigenvalues --    0.67558   0.70665   0.71064   0.73199   0.75027
  Beta virt. eigenvalues --    0.79705   0.80257   0.83729   0.84066   0.84322
  Beta virt. eigenvalues --    0.91646   0.97632   0.98534   1.08520   1.09077
  Beta virt. eigenvalues --    1.12112   1.12438   1.17704   1.21512   1.24936
  Beta virt. eigenvalues --    1.26493   1.27716   1.29622   1.29770   1.33810
  Beta virt. eigenvalues --    1.36438   1.43115   1.43183   1.48217   1.48940
  Beta virt. eigenvalues --    1.66131   1.68780   1.71778   1.76122   1.76836
  Beta virt. eigenvalues --    1.79609   1.84741   1.84974   1.94975   1.98254
  Beta virt. eigenvalues --    2.01590   2.07401   2.11151   2.12295   2.15204
  Beta virt. eigenvalues --    2.15545   2.19720   2.26426   2.27114   2.31758
  Beta virt. eigenvalues --    2.42708   2.57072   2.62243   2.68165   2.70476
  Beta virt. eigenvalues --    2.83369   2.85562   3.01170   3.06429   3.61314
  Beta virt. eigenvalues --    3.61690   3.62452   3.65651   3.68179   3.70691
  Beta virt. eigenvalues --    3.73967   3.74513   3.76289   3.87653
          Condensed to atoms (all electrons):
               1          2          3          4          5          6
     1  C    4.715767   0.012090  -0.054255  -0.054255   0.242256  -0.042434
     2  C    0.012090   5.797318  -0.092757  -0.092757  -0.072236   0.173987
     3  O   -0.054255  -0.092757   8.813209   0.005600   0.035124  -0.021343
     4  O   -0.054255  -0.092757   0.005600   8.813209  -0.008536  -0.021343
     5  H    0.242256  -0.072236   0.035124  -0.008536   1.518937  -0.204237
     6  H   -0.042434   0.173987  -0.021343  -0.021343  -0.204237   1.675673
     7  H    0.242256  -0.072236  -0.008536   0.035124  -0.223799  -0.204237
               7
     1  C    0.242256
     2  C   -0.072236
     3  O   -0.008536
     4  O    0.035124
     5  H   -0.223799
     6  H   -0.204237
     7  H    1.518937
          Atomic-Atomic Spin Densities.
               1          2          3          4          5          6
     1  C    0.517974  -0.252786   0.016367   0.016367  -0.038971  -0.342022
     2  C   -0.252786   1.168417  -0.195428  -0.195428   0.029512   0.096788
     3  O    0.016367  -0.195428   0.848361  -0.024281  -0.002414   0.008398
     4  O    0.016367  -0.195428  -0.024281   0.848361   0.003423   0.008398
     5  H   -0.038971   0.029512  -0.002414   0.003423  -0.035339   0.023877
     6  H   -0.342022   0.096788   0.008398   0.008398   0.023877   0.303866
     7  H   -0.038971   0.029512   0.003423  -0.002414   0.024621   0.023877
               7
     1  C   -0.038971
     2  C    0.029512
     3  O    0.003423
     4  O   -0.002414
     5  H    0.024621
     6  H    0.023877
     7  H   -0.035339
 Mulliken charges and spin densities:
               1          2
     1  C    0.938574  -0.122041
     2  C    0.346592   0.680587
     3  O   -0.677041   0.654427
     4  O   -0.677041   0.654427
     5  H   -0.287509   0.004710
     6  H   -0.356065   0.123181
     7  H   -0.287509   0.004710
 Sum of Mulliken charges =  -1.00000   2.00000
 Mulliken charges and spin densities with hydrogens summed into heavy atoms:
               1          2
     1  C    0.007490   0.010560
     2  C    0.346592   0.680587
     3  O   -0.677041   0.654427
     4  O   -0.677041   0.654427
 Electronic spatial extent (au):  <R**2>=            266.3407
 Charge=             -1.0000 electrons
 Dipole moment (field-independent basis, Debye):
    X=              2.8861    Y=              0.0000    Z=              0.0888  Tot=              2.8875
 Quadrupole moment (field-independent basis, Debye-Ang):
   XX=            -33.2013   YY=            -33.8636   ZZ=            -29.5351
   XY=              0.0000   XZ=             -0.1264   YZ=              0.0000
 Traceless Quadrupole moment (field-independent basis, Debye-Ang):
   XX=             -1.0013   YY=             -1.6636   ZZ=              2.6649
   XY=              0.0000   XZ=             -0.1264   YZ=              0.0000
 Octapole moment (field-independent basis, Debye-Ang**2):
  XXX=             -7.1386  YYY=              0.0000  ZZZ=              5.2289  XYY=              4.1099
  XXY=              0.0000  XXZ=             -0.7972  XZZ=             -2.2161  YZZ=              0.0000
  YYZ=             -1.6687  XYZ=              0.0000
 Hexadecapole moment (field-independent basis, Debye-Ang**3):
 XXXX=           -214.3549 YYYY=           -150.6534 ZZZZ=            -65.7834 XXXY=              0.0000
 XXXZ=             -4.6027 YYYX=              0.0000 YYYZ=              0.0000 ZZZX=             -2.1830
 ZZZY=              0.0000 XXYY=            -60.4520 XXZZ=            -43.9260 YYZZ=            -34.5915
 XXYZ=              0.0000 YYXZ=             -1.1441 ZZXY=              0.0000
 N-N= 1.072207614386D+02 E-N=-7.579353358771D+02  KE= 2.267216475364D+02
                          Isotropic Fermi Contact Couplings
        Atom                 a.u.       MegaHertz       Gauss      10(-4) cm-1
     1  C(13)              0.06936      38.98649      13.91135      13.00449
     2  C(13)              0.23982     134.80035      48.10012      44.96456
     3  O(17)              0.12681     -38.43682     -13.71521     -12.82114
     4  O(17)              0.12681     -38.43683     -13.71522     -12.82115
     5  H(1)               0.00054       1.20057       0.42839       0.40047
     6  H(1)               0.00630      14.09006       5.02768       4.69994
     7  H(1)               0.00054       1.20058       0.42840       0.40047
 --------------------------------------------------------
       Center         ----  Spin Dipole Couplings  ----
                      3XX-RR        3YY-RR        3ZZ-RR
 --------------------------------------------------------
     1   Atom        0.067997     -0.023757     -0.044239
     2   Atom       -0.306563     -0.273894      0.580457
     3   Atom       -1.062330      0.339777      0.722553
     4   Atom       -1.062335      0.339782      0.722553
     5   Atom        0.021366     -0.007683     -0.013683
     6   Atom        0.011462     -0.011327     -0.000135
     7   Atom        0.021367     -0.007683     -0.013683
 --------------------------------------------------------
                        XY            XZ            YZ
 --------------------------------------------------------
     1   Atom        0.000000      0.020784      0.000000
     2   Atom        0.000000      0.091510      0.000000
     3   Atom        0.766323     -0.445059     -1.345004
     4   Atom       -0.766318     -0.445054      1.345005
     5   Atom       -0.013027     -0.000505      0.000397
     6   Atom        0.000000      0.017812      0.000000
     7   Atom        0.013027     -0.000505     -0.000397
 --------------------------------------------------------


 ---------------------------------------------------------------------------------
              Anisotropic Spin Dipole Couplings in Principal Axis System
 ---------------------------------------------------------------------------------

       Atom             a.u.   MegaHertz   Gauss  10(-4) cm-1        Axes

              Baa    -0.0480    -6.436    -2.297    -2.147 -0.1764  0.0000  0.9843
     1 C(13)  Bbb    -0.0238    -3.188    -1.138    -1.063  0.0000  1.0000  0.0000
              Bcc     0.0717     9.624     3.434     3.210  0.9843  0.0000  0.1764
 
              Baa    -0.3159   -42.391   -15.126   -14.140  0.9948  0.0000 -0.1016
     2 C(13)  Bbb    -0.2739   -36.754   -13.115   -12.260  0.0000  1.0000  0.0000
              Bcc     0.5898    79.145    28.241    26.400  0.1016  0.0000  0.9948
 
              Baa    -1.4152   102.405    36.540    34.158  0.8761 -0.4688 -0.1126
     3 O(17)  Bbb    -0.6978    50.494    18.018    16.843  0.4077  0.5958  0.6919
              Bcc     2.1131  -152.899   -54.558   -51.002 -0.2573 -0.6521  0.7131
 
              Baa    -1.4152   102.405    36.540    34.158  0.8761  0.4688 -0.1126
     4 O(17)  Bbb    -0.6978    50.494    18.018    16.843  0.4077 -0.5958  0.6919
              Bcc     2.1131  -152.899   -54.558   -51.002 -0.2573  0.6521  0.7131
 
              Baa    -0.0137    -7.324    -2.613    -2.443 -0.0492 -0.1708  0.9841
     5 H(1)   Bbb    -0.0126    -6.741    -2.405    -2.249  0.3544  0.9182  0.1771
              Bcc     0.0264    14.065     5.019     4.692  0.9338 -0.3575 -0.0153
 
              Baa    -0.0131    -6.973    -2.488    -2.326 -0.5876  0.0000  0.8092
     6 H(1)   Bbb    -0.0113    -6.044    -2.156    -2.016  0.0000  1.0000  0.0000
              Bcc     0.0244    13.016     4.645     4.342  0.8092  0.0000  0.5876
 
              Baa    -0.0137    -7.324    -2.613    -2.443 -0.0492  0.1708  0.9841
     7 H(1)   Bbb    -0.0126    -6.741    -2.405    -2.249 -0.3544  0.9182 -0.1770
              Bcc     0.0264    14.065     5.019     4.692  0.9338  0.3575 -0.0153
 

 ---------------------------------------------------------------------------------

 Calling FoFJK, ICntrl=      2127 FMM=F ISym2X=0 I1Cent= 0 IOpClX= 1 NMat=1 NMatS=1 NMatT=0.
 ***** Axes restored to original set *****
 -------------------------------------------------------------------
 Center     Atomic                   Forces (Hartrees/Bohr)
 Number     Number              X              Y              Z
 -------------------------------------------------------------------
      1        6          -0.014917722   -0.000028075   -0.005257067
      2        6           0.039355445   -0.020894943    0.026709762
      3        8          -0.000405030   -0.017651848   -0.052465976
      4        8          -0.030165849    0.033895586    0.031710382
      5        1           0.000985592    0.001745445   -0.002593117
      6        1           0.005044815   -0.000340651    0.001992187
      7        1           0.000102749    0.003274486   -0.000096170
 -------------------------------------------------------------------
 Cartesian Forces:  Max     0.052465976 RMS     0.020849717

 GradGradGradGradGradGradGradGradGradGradGradGradGradGradGradGradGradGrad
 Berny optimization.
 FormGI is forming the generalized inverse of G from B-inverse, IUseBI=4.
 Internal  Forces:  Max     0.052466259 RMS     0.019330180
 Search for a local minimum.
 Step number   1 out of a maximum of   31
 All quantities printed in internal units (Hartrees-Bohrs-Radians)
 Mixed Optimization -- RFO/linear search
 Second derivative matrix not updated -- first step.
 ITU=  0
     Eigenvalues ---    0.00356   0.05989   0.07309   0.07309   0.16000
     Eigenvalues ---    0.16000   0.16000   0.25000   0.25000   0.29331
     Eigenvalues ---    0.34128   0.34128   0.34128   0.44003   0.44003
 RFO step:  Lambda=-2.06194723D-02 EMin= 3.55876872D-03
 Linear search not attempted -- first point.
 Iteration  1 RMS(Cart)=  0.07604415 RMS(Int)=  0.00457297
 Iteration  2 RMS(Cart)=  0.00554410 RMS(Int)=  0.00169575
 Iteration  3 RMS(Cart)=  0.00002720 RMS(Int)=  0.00169560
 Iteration  4 RMS(Cart)=  0.00000012 RMS(Int)=  0.00169560
 Variable       Old X    -DE/DX   Delta X   Delta X   Delta X     New X
                                 (Linear)    (Quad)   (Total)
    R1        2.89317   0.00164   0.00000   0.00523   0.00523   2.89840
    R2        2.07114   0.00259   0.00000   0.00716   0.00716   2.07830
    R3        2.07114   0.00542   0.00000   0.01498   0.01498   2.08612
    R4        2.07114   0.00259   0.00000   0.00716   0.00716   2.07830
    R5        2.66451  -0.05247   0.00000  -0.11390  -0.11390   2.55062
    R6        2.66451  -0.05247   0.00000  -0.11390  -0.11390   2.55062
    A1        1.91063   0.00272   0.00000   0.01578   0.01570   1.92634
    A2        1.91063  -0.00169   0.00000  -0.01083  -0.01079   1.89984
    A3        1.91063   0.00272   0.00000   0.01578   0.01570   1.92634
    A4        1.91063  -0.00087   0.00000  -0.00631  -0.00627   1.90436
    A5        1.91063  -0.00200   0.00000  -0.00810  -0.00828   1.90235
    A6        1.91063  -0.00087   0.00000  -0.00631  -0.00627   1.90436
    A7        1.91063   0.02768   0.00000   0.10372   0.10049   2.01112
    A8        1.91063   0.02768   0.00000   0.10372   0.10049   2.01112
    A9        1.91063  -0.02719   0.00000  -0.09758  -0.10299   1.80765
    D1       -3.14159  -0.00014   0.00000  -0.00094   0.00027  -3.14132
    D2        1.04720  -0.00074   0.00000  -0.00846  -0.00985   1.03735
    D3        1.04720   0.00030   0.00000   0.00376   0.00506   1.05226
    D4       -1.04720  -0.00030   0.00000  -0.00376  -0.00506  -1.05226
    D5       -1.04720   0.00074   0.00000   0.00846   0.00985  -1.03735
    D6        3.14159   0.00014   0.00000   0.00094  -0.00027   3.14132
         Item               Value     Threshold  Converged?
 Maximum Force            0.052466     0.000015     NO 
 RMS     Force            0.019330     0.000010     NO 
 Maximum Displacement     0.187897     0.000060     NO 
 RMS     Displacement     0.073107     0.000040     NO 
 Predicted change in Energy=-1.091050D-02
 GradGradGradGradGradGradGradGradGradGradGradGradGradGradGradGradGradGrad

                          Input orientation:                          
 ---------------------------------------------------------------------
 Center     Atomic      Atomic             Coordinates (Angstroms)
 Number     Number       Type             X           Y           Z
 ---------------------------------------------------------------------
      1          6           0        0.005029    1.440163   -1.875766
      2          6           0       -0.678581    0.174896   -1.342644
      3          8           0       -0.728368    0.071051    0.002162
      4          8           0       -0.116100   -0.989428   -1.729593
      5          1           0        0.000936    1.443057   -2.975546
      6          1           0        1.049258    1.459082   -1.518160
      7          1           0       -0.515988    2.338395   -1.513466
 ---------------------------------------------------------------------
                    Distance matrix (angstroms):
                    1          2          3          4          5
     1  C    0.000000
     2  C    1.533767   0.000000
     3  O    2.436997   1.349728   0.000000
     4  O    2.436997   1.349728   2.120958   0.000000
     5  H    1.099792   2.176314   3.358725   2.735522   0.000000
     6  H    1.103926   2.159945   2.719920   2.719920   1.795330
     7  H    1.099792   2.176314   2.735522   3.358725   1.790676
                    6          7
     6  H    0.000000
     7  H    1.795330   0.000000
 Stoichiometry    C2H3O2(1-,3)
 Framework group  C1[X(C2H3O2)]
 Deg. of freedom    15
 Full point group                 C1      NOp   1
 Largest Abelian subgroup         C1      NOp   1
 Largest concise Abelian subgroup C1      NOp   1
                         Standard orientation:                         
 ---------------------------------------------------------------------
 Center     Atomic      Atomic             Coordinates (Angstroms)
 Number     Number       Type             X           Y           Z
 ---------------------------------------------------------------------
      1          6           0        1.383985    0.000000    0.054099
      2          6           0       -0.095413    0.000000   -0.350652
      3          8           0       -0.810008    1.060479    0.081210
      4          8           0       -0.810008   -1.060479    0.081210
      5          1           0        1.888158   -0.895338   -0.337973
      6          1           0        1.452375    0.000000    1.155905
      7          1           0        1.888158    0.895338   -0.337974
 ---------------------------------------------------------------------
 Rotational constants (GHZ):     12.3616835      8.9869048      5.5820472
 Standard basis: Aug-CC-pVDZ (5D, 7F)
 There are   127 symmetry adapted cartesian basis functions of A   symmetry.
 There are   119 symmetry adapted basis functions of A   symmetry.
   119 basis functions,   205 primitive gaussians,   127 cartesian basis functions
    17 alpha electrons       15 beta electrons
       nuclear repulsion energy       109.5241026166 Hartrees.
 NAtoms=    7 NActive=    7 NUniq=    7 SFac= 1.00D+00 NAtFMM=   60 NAOKFM=F Big=F
 Integral buffers will be    131072 words long.
 Raffenetti 2 integral format.
 Two-electron integral symmetry is turned on.
 One-electron integrals computed using PRISM.
 NBasis=   119 RedAO= T EigKep=  2.25D-04  NBF=   119
 NBsUse=   119 1.00D-06 EigRej= -1.00D+00 NBFU=   119
 Initial guess from the checkpoint file:  "OAC.chk"
 B after Tr=     0.000000    0.000000    0.000000
         Rot=    0.999999    0.000000    0.001419   -0.000001 Ang=  -0.16 deg.
 Initial guess <Sx>= 0.0000 <Sy>= 0.0000 <Sz>= 1.0000 <S**2>= 2.0172 S= 1.0057
 ExpMin= 2.97D-02 ExpMax= 1.17D+04 ExpMxC= 4.01D+02 IAcc=3 IRadAn=         5 AccDes= 0.00D+00
 Harris functional with IExCor= 1009 and IRadAn=       5 diagonalized for initial guess.
 HarFok:  IExCor= 1009 AccDes= 0.00D+00 IRadAn=         5 IDoV= 1 UseB2=F ITyADJ=14
 ICtDFT=  3500011 ScaDFX=  1.000000  1.000000  1.000000  1.000000
 FoFCou: FMM=F IPFlag=           0 FMFlag=      100000 FMFlg1=           0
         NFxFlg=           0 DoJE=T BraDBF=F KetDBF=T FulRan=T
         wScrn=  0.000000 ICntrl=     500 IOpCl=  0 I1Cent=   200000004 NGrid=           0
         NMat0=    1 NMatS0=      1 NMatT0=    0 NMatD0=    1 NMtDS0=    0 NMtDT0=    0
 Petite list used in FoFCou.
 Keep R1 and R2 ints in memory in canonical form, NReq=52103897.
 Requested convergence on RMS density matrix=1.00D-10 within 128 cycles.
 Requested convergence on MAX density matrix=1.00D-08.
 Requested convergence on             energy=1.00D-08.
 No special actions if energy rises.
 SCF Done:  E(UM062X) =  -228.311670979     A.U. after   23 cycles
            NFock= 23  Conv=0.89D-10     -V/T= 2.0062
 <Sx>= 0.0000 <Sy>= 0.0000 <Sz>= 1.0000 <S**2>= 2.0164 S= 1.0054
 <L.S>= 0.000000000000E+00
 Annihilation of the first spin contaminant:
 S**2 before annihilation     2.0164,   after     2.0001
 Calling FoFJK, ICntrl=      2127 FMM=F ISym2X=0 I1Cent= 0 IOpClX= 1 NMat=1 NMatS=1 NMatT=0.
 ***** Axes restored to original set *****
 -------------------------------------------------------------------
 Center     Atomic                   Forces (Hartrees/Bohr)
 Number     Number              X              Y              Z
 -------------------------------------------------------------------
      1        6          -0.008018995   -0.002764022   -0.001142511
      2        6           0.012468752   -0.006029449    0.008100661
      3        8          -0.000490120   -0.002097973   -0.015244901
      4        8          -0.008200566    0.011256903    0.006563569
      5        1           0.000104410   -0.000230570    0.000726302
      6        1           0.003773695    0.000543270    0.001001507
      7        1           0.000362824   -0.000678159   -0.000004627
 -------------------------------------------------------------------
 Cartesian Forces:  Max     0.015244901 RMS     0.006254570

 GradGradGradGradGradGradGradGradGradGradGradGradGradGradGradGradGradGrad
 Berny optimization.
 Using GEDIIS/GDIIS optimizer.
 FormGI is forming the generalized inverse of G from B-inverse, IUseBI=4.
 Internal  Forces:  Max     0.015009926 RMS     0.005249410
 Search for a local minimum.
 Step number   2 out of a maximum of   31
 All quantities printed in internal units (Hartrees-Bohrs-Radians)
 Mixed Optimization -- RFO/linear search
 Update second derivatives using D2CorX and points    1    2
 DE= -1.34D-02 DEPred=-1.09D-02 R= 1.22D+00
 TightC=F SS=  1.41D+00  RLast= 2.41D-01 DXNew= 5.0454D-01 7.2314D-01
 Trust test= 1.22D+00 RLast= 2.41D-01 DXMaxT set to 5.05D-01
 ITU=  1  0
 Use linear search instead of GDIIS.
     Eigenvalues ---    0.00356   0.04515   0.07144   0.07318   0.15991
     Eigenvalues ---    0.16000   0.16071   0.23336   0.25000   0.29718
     Eigenvalues ---    0.33736   0.34128   0.34209   0.37484   0.44003
 RFO step:  Lambda=-4.02310173D-04 EMin= 3.55876872D-03
 Quartic linear search produced a step of  0.25926.
 Iteration  1 RMS(Cart)=  0.01938400 RMS(Int)=  0.00073803
 Iteration  2 RMS(Cart)=  0.00049673 RMS(Int)=  0.00060871
 Iteration  3 RMS(Cart)=  0.00000071 RMS(Int)=  0.00060871
 Variable       Old X    -DE/DX   Delta X   Delta X   Delta X     New X
                                 (Linear)    (Quad)   (Total)
    R1        2.89840  -0.00447   0.00136  -0.02086  -0.01950   2.87890
    R2        2.07830  -0.00073   0.00186  -0.00490  -0.00304   2.07526
    R3        2.08612   0.00390   0.00388   0.00978   0.01366   2.09978
    R4        2.07830  -0.00073   0.00186  -0.00490  -0.00304   2.07526
    R5        2.55062  -0.01501  -0.02953  -0.00954  -0.03907   2.51155
    R6        2.55062  -0.01501  -0.02953  -0.00954  -0.03907   2.51155
    A1        1.92634  -0.00031   0.00407  -0.00888  -0.00483   1.92150
    A2        1.89984   0.00087  -0.00280   0.01184   0.00906   1.90890
    A3        1.92634  -0.00031   0.00407  -0.00888  -0.00483   1.92150
    A4        1.90436  -0.00027  -0.00163   0.00108  -0.00053   1.90383
    A5        1.90235   0.00028  -0.00215   0.00393   0.00172   1.90407
    A6        1.90436  -0.00027  -0.00163   0.00108  -0.00053   1.90383
    A7        2.01112   0.00541   0.02605   0.00084   0.02568   2.03680
    A8        2.01112   0.00541   0.02605   0.00084   0.02568   2.03680
    A9        1.80765  -0.00532  -0.02670   0.01978  -0.00884   1.79881
    D1       -3.14132   0.00082   0.00007   0.01766   0.01813  -3.12318
    D2        1.03735  -0.00077  -0.00255  -0.01102  -0.01405   1.02330
    D3        1.05226   0.00080   0.00131   0.01434   0.01609   1.06835
    D4       -1.05226  -0.00080  -0.00131  -0.01434  -0.01609  -1.06835
    D5       -1.03735   0.00077   0.00255   0.01102   0.01405  -1.02330
    D6        3.14132  -0.00082  -0.00007  -0.01766  -0.01813   3.12318
         Item               Value     Threshold  Converged?
 Maximum Force            0.015010     0.000015     NO 
 RMS     Force            0.005249     0.000010     NO 
 Maximum Displacement     0.036572     0.000060     NO 
 RMS     Displacement     0.019325     0.000040     NO 
 Predicted change in Energy=-1.013838D-03
 GradGradGradGradGradGradGradGradGradGradGradGradGradGradGradGradGradGrad

                          Input orientation:                          
 ---------------------------------------------------------------------
 Center     Atomic      Atomic             Coordinates (Angstroms)
 Number     Number       Type             X           Y           Z
 ---------------------------------------------------------------------
      1          6           0        0.008594    1.439346   -1.874005
      2          6           0       -0.659593    0.179277   -1.338614
      3          8           0       -0.735287    0.058883   -0.017191
      4          8           0       -0.134502   -0.981708   -1.716468
      5          1           0       -0.004455    1.435849   -2.972103
      6          1           0        1.062366    1.475146   -1.523363
      7          1           0       -0.520939    2.330424   -1.511269
 ---------------------------------------------------------------------
                    Distance matrix (angstroms):
                    1          2          3          4          5
     1  C    0.000000
     2  C    1.523446   0.000000
     3  O    2.430389   1.329053   0.000000
     4  O    2.430389   1.329053   2.081181   0.000000
     5  H    1.098182   2.162514   3.340906   2.727290   0.000000
     6  H    1.111156   2.162996   2.739692   2.739692   1.799584
     7  H    1.098182   2.162514   2.727290   3.340906   1.789150
                    6          7
     6  H    0.000000
     7  H    1.799584   0.000000
 Stoichiometry    C2H3O2(1-,3)
 Framework group  C1[X(C2H3O2)]
 Deg. of freedom    15
 Full point group                 C1      NOp   1
 Largest Abelian subgroup         C1      NOp   1
 Largest concise Abelian subgroup C1      NOp   1
                         Standard orientation:                         
 ---------------------------------------------------------------------
 Center     Atomic      Atomic             Coordinates (Angstroms)
 Number     Number       Type             X           Y           Z
 ---------------------------------------------------------------------
      1          6           0        1.384179    0.000000    0.050513
      2          6           0       -0.091261    0.000000   -0.328912
      3          8           0       -0.812024    1.040591    0.076124
      4          8           0       -0.812024   -1.040591    0.076124
      5          1           0        1.877404   -0.894575   -0.352560
      6          1           0        1.480062    0.000000    1.157525
      7          1           0        1.877404    0.894575   -0.352560
 ---------------------------------------------------------------------
 Rotational constants (GHZ):     12.8397187      9.0000255      5.6594922
 Standard basis: Aug-CC-pVDZ (5D, 7F)
 There are   127 symmetry adapted cartesian basis functions of A   symmetry.
 There are   119 symmetry adapted basis functions of A   symmetry.
   119 basis functions,   205 primitive gaussians,   127 cartesian basis functions
    17 alpha electrons       15 beta electrons
       nuclear repulsion energy       110.5611061892 Hartrees.
 NAtoms=    7 NActive=    7 NUniq=    7 SFac= 1.00D+00 NAtFMM=   60 NAOKFM=F Big=F
 Integral buffers will be    131072 words long.
 Raffenetti 2 integral format.
 Two-electron integral symmetry is turned on.
 One-electron integrals computed using PRISM.
 NBasis=   119 RedAO= T EigKep=  2.14D-04  NBF=   119
 NBsUse=   119 1.00D-06 EigRej= -1.00D+00 NBFU=   119
 Initial guess from the checkpoint file:  "OAC.chk"
 B after Tr=     0.000000    0.000000    0.000000
         Rot=    1.000000    0.000000   -0.000846    0.000000 Ang=  -0.10 deg.
 Initial guess <Sx>= 0.0000 <Sy>= 0.0000 <Sz>= 1.0000 <S**2>= 2.0160 S= 1.0053
 ExpMin= 2.97D-02 ExpMax= 1.17D+04 ExpMxC= 4.01D+02 IAcc=3 IRadAn=         5 AccDes= 0.00D+00
 Harris functional with IExCor= 1009 and IRadAn=       5 diagonalized for initial guess.
 HarFok:  IExCor= 1009 AccDes= 0.00D+00 IRadAn=         5 IDoV= 1 UseB2=F ITyADJ=14
 ICtDFT=  3500011 ScaDFX=  1.000000  1.000000  1.000000  1.000000
 FoFCou: FMM=F IPFlag=           0 FMFlag=      100000 FMFlg1=           0
         NFxFlg=           0 DoJE=T BraDBF=F KetDBF=T FulRan=T
         wScrn=  0.000000 ICntrl=     500 IOpCl=  0 I1Cent=   200000004 NGrid=           0
         NMat0=    1 NMatS0=      1 NMatT0=    0 NMatD0=    1 NMtDS0=    0 NMtDT0=    0
 Petite list used in FoFCou.
 Keep R1 and R2 ints in memory in canonical form, NReq=52103897.
 Requested convergence on RMS density matrix=1.00D-10 within 128 cycles.
 Requested convergence on MAX density matrix=1.00D-08.
 Requested convergence on             energy=1.00D-08.
 No special actions if energy rises.
 SCF Done:  E(UM062X) =  -228.312567419     A.U. after   24 cycles
            NFock= 24  Conv=0.19D-10     -V/T= 2.0058
 <Sx>= 0.0000 <Sy>= 0.0000 <Sz>= 1.0000 <S**2>= 2.0158 S= 1.0052
 <L.S>= 0.000000000000E+00
 Annihilation of the first spin contaminant:
 S**2 before annihilation     2.0158,   after     2.0001
 Calling FoFJK, ICntrl=      2127 FMM=F ISym2X=0 I1Cent= 0 IOpClX= 1 NMat=1 NMatS=1 NMatT=0.
 ***** Axes restored to original set *****
 -------------------------------------------------------------------
 Center     Atomic                   Forces (Hartrees/Bohr)
 Number     Number              X              Y              Z
 -------------------------------------------------------------------
      1        6          -0.003858654   -0.000795905   -0.000876852
      2        6           0.003561342    0.002914784   -0.000525782
      3        8          -0.001536123   -0.000404119    0.002128542
      4        8          -0.000393347   -0.002383449   -0.001103695
      5        1           0.000419268    0.000120827   -0.000012744
      6        1           0.001429255    0.000356022    0.000287295
      7        1           0.000378259    0.000191840    0.000103236
 -------------------------------------------------------------------
 Cartesian Forces:  Max     0.003858654 RMS     0.001610791

 GradGradGradGradGradGradGradGradGradGradGradGradGradGradGradGradGradGrad
 Berny optimization.
 Using GEDIIS/GDIIS optimizer.
 FormGI is forming the generalized inverse of G from B-inverse, IUseBI=4.
 Internal  Forces:  Max     0.002240731 RMS     0.001107145
 Search for a local minimum.
 Step number   3 out of a maximum of   31
 All quantities printed in internal units (Hartrees-Bohrs-Radians)
 Mixed Optimization -- RFO/linear search
 Update second derivatives using D2CorX and points    1    2    3
 DE= -8.96D-04 DEPred=-1.01D-03 R= 8.84D-01
 TightC=F SS=  1.41D+00  RLast= 8.21D-02 DXNew= 8.4853D-01 2.4627D-01
 Trust test= 8.84D-01 RLast= 8.21D-02 DXMaxT set to 5.05D-01
 ITU=  1  1  0
 Use linear search instead of GDIIS.
     Eigenvalues ---    0.00356   0.03640   0.07197   0.07276   0.15887
     Eigenvalues ---    0.16000   0.16070   0.24297   0.25000   0.29402
     Eigenvalues ---    0.33431   0.34128   0.34195   0.44003   0.49117
 RFO step:  Lambda=-2.44065083D-04 EMin= 3.55876872D-03
 Quartic linear search produced a step of  0.02655.
 Iteration  1 RMS(Cart)=  0.01416342 RMS(Int)=  0.00035273
 Iteration  2 RMS(Cart)=  0.00023427 RMS(Int)=  0.00026638
 Iteration  3 RMS(Cart)=  0.00000000 RMS(Int)=  0.00026638
 Variable       Old X    -DE/DX   Delta X   Delta X   Delta X     New X
                                 (Linear)    (Quad)   (Total)
    R1        2.87890  -0.00065  -0.00052  -0.00346  -0.00397   2.87492
    R2        2.07526   0.00001  -0.00008  -0.00013  -0.00021   2.07506
    R3        2.09978   0.00146   0.00036   0.00533   0.00569   2.10547
    R4        2.07526   0.00001  -0.00008  -0.00013  -0.00021   2.07506
    R5        2.51155   0.00224  -0.00104   0.00199   0.00095   2.51250
    R6        2.51155   0.00224  -0.00104   0.00199   0.00095   2.51250
    A1        1.92150   0.00035  -0.00013   0.00243   0.00229   1.92380
    A2        1.90890   0.00029   0.00024   0.00157   0.00181   1.91071
    A3        1.92150   0.00035  -0.00013   0.00243   0.00229   1.92380
    A4        1.90383  -0.00045  -0.00001  -0.00377  -0.00378   1.90005
    A5        1.90407  -0.00010   0.00005   0.00100   0.00103   1.90510
    A6        1.90383  -0.00045  -0.00001  -0.00377  -0.00378   1.90005
    A7        2.03680   0.00167   0.00068   0.01934   0.01947   2.05627
    A8        2.03680   0.00167   0.00068   0.01934   0.01947   2.05627
    A9        1.79881  -0.00069  -0.00023   0.01232   0.01126   1.81007
    D1       -3.12318   0.00086   0.00048   0.02444   0.02510  -3.09808
    D2        1.02330  -0.00118  -0.00037  -0.02877  -0.02933   0.99397
    D3        1.06835   0.00102   0.00043   0.02661   0.02721   1.09557
    D4       -1.06835  -0.00102  -0.00043  -0.02661  -0.02721  -1.09557
    D5       -1.02330   0.00118   0.00037   0.02877   0.02933  -0.99397
    D6        3.12318  -0.00086  -0.00048  -0.02444  -0.02510   3.09808
         Item               Value     Threshold  Converged?
 Maximum Force            0.002241     0.000015     NO 
 RMS     Force            0.001107     0.000010     NO 
 Maximum Displacement     0.033824     0.000060     NO 
 RMS     Displacement     0.014088     0.000040     NO 
 Predicted change in Energy=-1.309220D-04
 GradGradGradGradGradGradGradGradGradGradGradGradGradGradGradGradGradGrad

                          Input orientation:                          
 ---------------------------------------------------------------------
 Center     Atomic      Atomic             Coordinates (Angstroms)
 Number     Number       Type             X           Y           Z
 ---------------------------------------------------------------------
      1          6           0        0.010681    1.441407   -1.874530
      2          6           0       -0.641694    0.178684   -1.331922
      3          8           0       -0.749001    0.053570   -0.012622
      4          8           0       -0.145310   -0.992054   -1.720118
      5          1           0       -0.005515    1.435348   -2.972466
      6          1           0        1.069161    1.490098   -1.530117
      7          1           0       -0.522137    2.330164   -1.511238
 ---------------------------------------------------------------------
                    Distance matrix (angstroms):
                    1          2          3          4          5
     1  C    0.000000
     2  C    1.521343   0.000000
     3  O    2.443340   1.329557   0.000000
     4  O    2.443340   1.329557   2.091248   0.000000
     5  H    1.098073   2.162247   3.350039   2.734995   0.000000
     6  H    1.114169   2.164743   2.769859   2.769859   1.799527
     7  H    1.098073   2.162247   2.734995   3.350039   1.789631
                    6          7
     6  H    0.000000
     7  H    1.799527   0.000000
 Stoichiometry    C2H3O2(1-,3)
 Framework group  C1[X(C2H3O2)]
 Deg. of freedom    15
 Full point group                 C1      NOp   1
 Largest Abelian subgroup         C1      NOp   1
 Largest concise Abelian subgroup C1      NOp   1
                         Standard orientation:                         
 ---------------------------------------------------------------------
 Center     Atomic      Atomic             Coordinates (Angstroms)
 Number     Number       Type             X           Y           Z
 ---------------------------------------------------------------------
      1          6           0        1.390805    0.000000    0.046349
      2          6           0       -0.088759    0.000000   -0.307734
      3          8           0       -0.817354    1.045624    0.071134
      4          8           0       -0.817354   -1.045624    0.071134
      5          1           0        1.878895   -0.894816   -0.362108
      6          1           0        1.507591    0.000000    1.154381
      7          1           0        1.878895    0.894816   -0.362108
 ---------------------------------------------------------------------
 Rotational constants (GHZ):     12.7897977      8.9366012      5.6018763
 Standard basis: Aug-CC-pVDZ (5D, 7F)
 There are   127 symmetry adapted cartesian basis functions of A   symmetry.
 There are   119 symmetry adapted basis functions of A   symmetry.
   119 basis functions,   205 primitive gaussians,   127 cartesian basis functions
    17 alpha electrons       15 beta electrons
       nuclear repulsion energy       110.3174383004 Hartrees.
 NAtoms=    7 NActive=    7 NUniq=    7 SFac= 1.00D+00 NAtFMM=   60 NAOKFM=F Big=F
 Integral buffers will be    131072 words long.
 Raffenetti 2 integral format.
 Two-electron integral symmetry is turned on.
 One-electron integrals computed using PRISM.
 NBasis=   119 RedAO= T EigKep=  2.11D-04  NBF=   119
 NBsUse=   119 1.00D-06 EigRej= -1.00D+00 NBFU=   119
 Initial guess from the checkpoint file:  "OAC.chk"
 B after Tr=     0.000000    0.000000    0.000000
         Rot=    1.000000    0.000000   -0.000640    0.000000 Ang=  -0.07 deg.
 Initial guess <Sx>= 0.0000 <Sy>= 0.0000 <Sz>= 1.0000 <S**2>= 2.0157 S= 1.0052
 ExpMin= 2.97D-02 ExpMax= 1.17D+04 ExpMxC= 4.01D+02 IAcc=3 IRadAn=         5 AccDes= 0.00D+00
 Harris functional with IExCor= 1009 and IRadAn=       5 diagonalized for initial guess.
 HarFok:  IExCor= 1009 AccDes= 0.00D+00 IRadAn=         5 IDoV= 1 UseB2=F ITyADJ=14
 ICtDFT=  3500011 ScaDFX=  1.000000  1.000000  1.000000  1.000000
 FoFCou: FMM=F IPFlag=           0 FMFlag=      100000 FMFlg1=           0
         NFxFlg=           0 DoJE=T BraDBF=F KetDBF=T FulRan=T
         wScrn=  0.000000 ICntrl=     500 IOpCl=  0 I1Cent=   200000004 NGrid=           0
         NMat0=    1 NMatS0=      1 NMatT0=    0 NMatD0=    1 NMtDS0=    0 NMtDT0=    0
 Petite list used in FoFCou.
 Keep R1 and R2 ints in memory in canonical form, NReq=52103897.
 Requested convergence on RMS density matrix=1.00D-10 within 128 cycles.
 Requested convergence on MAX density matrix=1.00D-08.
 Requested convergence on             energy=1.00D-08.
 No special actions if energy rises.
 SCF Done:  E(UM062X) =  -228.312640543     A.U. after   25 cycles
            NFock= 25  Conv=0.62D-10     -V/T= 2.0059
 <Sx>= 0.0000 <Sy>= 0.0000 <Sz>= 1.0000 <S**2>= 2.0161 S= 1.0053
 <L.S>= 0.000000000000E+00
 Annihilation of the first spin contaminant:
 S**2 before annihilation     2.0161,   after     2.0001
 Calling FoFJK, ICntrl=      2127 FMM=F ISym2X=0 I1Cent= 0 IOpClX= 1 NMat=1 NMatS=1 NMatT=0.
 ***** Axes restored to original set *****
 -------------------------------------------------------------------
 Center     Atomic                   Forces (Hartrees/Bohr)
 Number     Number              X              Y              Z
 -------------------------------------------------------------------
      1        6          -0.001845692   -0.002335345    0.000777536
      2        6          -0.000692788    0.001420589   -0.001114855
      3        8           0.000819096   -0.000270441   -0.001171431
      4        8           0.000052298    0.001057695    0.000997412
      5        1           0.000197084   -0.000184566    0.000296539
      6        1           0.001219261    0.000589572    0.000070036
      7        1           0.000250742   -0.000277505    0.000144761
 -------------------------------------------------------------------
 Cartesian Forces:  Max     0.002335345 RMS     0.000966074

 GradGradGradGradGradGradGradGradGradGradGradGradGradGradGradGradGradGrad
 Berny optimization.
 Using GEDIIS/GDIIS optimizer.
 FormGI is forming the generalized inverse of G from B-inverse, IUseBI=4.
 Internal  Forces:  Max     0.002369022 RMS     0.000795979
 Search for a local minimum.
 Step number   4 out of a maximum of   31
 All quantities printed in internal units (Hartrees-Bohrs-Radians)
 Mixed Optimization -- En-DIIS/RFO-DIIS
 Update second derivatives using D2CorX and points    1    2    3    4
 DE= -7.31D-05 DEPred=-1.31D-04 R= 5.59D-01
 TightC=F SS=  1.41D+00  RLast= 7.38D-02 DXNew= 8.4853D-01 2.2126D-01
 Trust test= 5.59D-01 RLast= 7.38D-02 DXMaxT set to 5.05D-01
 ITU=  1  1  1  0
 Use linear search instead of GDIIS.
     Eigenvalues ---    0.00356   0.04484   0.07124   0.07261   0.15436
     Eigenvalues ---    0.16000   0.16286   0.20831   0.25000   0.31376
     Eigenvalues ---    0.33197   0.34128   0.34336   0.44003   0.49984
 RFO step:  Lambda=-3.12626283D-05 EMin= 3.55876872D-03
 Quartic linear search produced a step of -0.28155.
 Iteration  1 RMS(Cart)=  0.00344752 RMS(Int)=  0.00006464
 Iteration  2 RMS(Cart)=  0.00000980 RMS(Int)=  0.00006393
 Iteration  3 RMS(Cart)=  0.00000000 RMS(Int)=  0.00006393
 Variable       Old X    -DE/DX   Delta X   Delta X   Delta X     New X
                                 (Linear)    (Quad)   (Total)
    R1        2.87492  -0.00237   0.00112  -0.00773  -0.00661   2.86831
    R2        2.07506  -0.00030   0.00006  -0.00072  -0.00066   2.07439
    R3        2.10547   0.00121  -0.00160   0.00516   0.00356   2.10903
    R4        2.07506  -0.00030   0.00006  -0.00072  -0.00066   2.07439
    R5        2.51250  -0.00120  -0.00027  -0.00135  -0.00162   2.51088
    R6        2.51250  -0.00120  -0.00027  -0.00135  -0.00162   2.51088
    A1        1.92380  -0.00022  -0.00065   0.00000  -0.00065   1.92315
    A2        1.91071   0.00093  -0.00051   0.00517   0.00467   1.91537
    A3        1.92380  -0.00022  -0.00065   0.00000  -0.00065   1.92315
    A4        1.90005  -0.00037   0.00107  -0.00341  -0.00234   1.89770
    A5        1.90510   0.00024  -0.00029   0.00154   0.00125   1.90635
    A6        1.90005  -0.00037   0.00107  -0.00341  -0.00234   1.89770
    A7        2.05627  -0.00022  -0.00548   0.00330  -0.00205   2.05422
    A8        2.05627  -0.00022  -0.00548   0.00330  -0.00205   2.05422
    A9        1.81007  -0.00039  -0.00317  -0.00306  -0.00604   1.80403
    D1       -3.09808  -0.00053  -0.00707   0.00008  -0.00703  -3.10511
    D2        0.99397   0.00052   0.00826  -0.00200   0.00630   1.00027
    D3        1.09557  -0.00052  -0.00766   0.00104  -0.00666   1.08890
    D4       -1.09557   0.00052   0.00766  -0.00104   0.00666  -1.08890
    D5       -0.99397  -0.00052  -0.00826   0.00200  -0.00630  -1.00027
    D6        3.09808   0.00053   0.00707  -0.00008   0.00703   3.10511
         Item               Value     Threshold  Converged?
 Maximum Force            0.002369     0.000015     NO 
 RMS     Force            0.000796     0.000010     NO 
 Maximum Displacement     0.006528     0.000060     NO 
 RMS     Displacement     0.003453     0.000040     NO 
 Predicted change in Energy=-2.636056D-05
 GradGradGradGradGradGradGradGradGradGradGradGradGradGradGradGradGradGrad

                          Input orientation:                          
 ---------------------------------------------------------------------
 Center     Atomic      Atomic             Coordinates (Angstroms)
 Number     Number       Type             X           Y           Z
 ---------------------------------------------------------------------
      1          6           0        0.009405    1.439470   -1.873794
      2          6           0       -0.645148    0.180718   -1.334389
      3          8           0       -0.746347    0.053734   -0.015647
      4          8           0       -0.144476   -0.988736   -1.717993
      5          1           0       -0.005239    1.433545   -2.971402
      6          1           0        1.069917    1.490012   -1.529797
      7          1           0       -0.521926    2.328473   -1.509991
 ---------------------------------------------------------------------
                    Distance matrix (angstroms):
                    1          2          3          4          5
     1  C    0.000000
     2  C    1.517846   0.000000
     3  O    2.438061   1.328701   0.000000
     4  O    2.438061   1.328701   2.084939   0.000000
     5  H    1.097721   2.158441   3.345087   2.730909   0.000000
     6  H    1.116052   2.166537   2.766652   2.766652   1.799270
     7  H    1.097721   2.158441   2.730909   3.345087   1.789855
                    6          7
     6  H    0.000000
     7  H    1.799270   0.000000
 Stoichiometry    C2H3O2(1-,3)
 Framework group  C1[X(C2H3O2)]
 Deg. of freedom    15
 Full point group                 C1      NOp   1
 Largest Abelian subgroup         C1      NOp   1
 Largest concise Abelian subgroup C1      NOp   1
                         Standard orientation:                         
 ---------------------------------------------------------------------
 Center     Atomic      Atomic             Coordinates (Angstroms)
 Number     Number       Type             X           Y           Z
 ---------------------------------------------------------------------
      1          6           0        1.387572    0.000000    0.046633
      2          6           0       -0.087344    0.000000   -0.311807
      3          8           0       -0.816231    1.042470    0.072157
      4          8           0       -0.816231   -1.042470    0.072157
      5          1           0        1.876239   -0.894928   -0.359938
      6          1           0        1.505845    0.000000    1.156401
      7          1           0        1.876239    0.894928   -0.359938
 ---------------------------------------------------------------------
 Rotational constants (GHZ):     12.8462857      8.9614679      5.6270588
 Standard basis: Aug-CC-pVDZ (5D, 7F)
 There are   127 symmetry adapted cartesian basis functions of A   symmetry.
 There are   119 symmetry adapted basis functions of A   symmetry.
   119 basis functions,   205 primitive gaussians,   127 cartesian basis functions
    17 alpha electrons       15 beta electrons
       nuclear repulsion energy       110.4778826893 Hartrees.
 NAtoms=    7 NActive=    7 NUniq=    7 SFac= 1.00D+00 NAtFMM=   60 NAOKFM=F Big=F
 Integral buffers will be    131072 words long.
 Raffenetti 2 integral format.
 Two-electron integral symmetry is turned on.
 One-electron integrals computed using PRISM.
 NBasis=   119 RedAO= T EigKep=  2.09D-04  NBF=   119
 NBsUse=   119 1.00D-06 EigRej= -1.00D+00 NBFU=   119
 Initial guess from the checkpoint file:  "OAC.chk"
 B after Tr=     0.000000    0.000000    0.000000
         Rot=    1.000000    0.000000    0.000069    0.000000 Ang=   0.01 deg.
 Initial guess <Sx>= 0.0000 <Sy>= 0.0000 <Sz>= 1.0000 <S**2>= 2.0160 S= 1.0053
 Keep R1 and R2 ints in memory in canonical form, NReq=52103897.
 Requested convergence on RMS density matrix=1.00D-10 within 128 cycles.
 Requested convergence on MAX density matrix=1.00D-08.
 Requested convergence on             energy=1.00D-08.
 No special actions if energy rises.
 SCF Done:  E(UM062X) =  -228.312668821     A.U. after   25 cycles
            NFock= 25  Conv=0.68D-10     -V/T= 2.0058
 <Sx>= 0.0000 <Sy>= 0.0000 <Sz>= 1.0000 <S**2>= 2.0159 S= 1.0053
 <L.S>= 0.000000000000E+00
 Annihilation of the first spin contaminant:
 S**2 before annihilation     2.0159,   after     2.0001
 Calling FoFJK, ICntrl=      2127 FMM=F ISym2X=0 I1Cent= 0 IOpClX= 1 NMat=1 NMatS=1 NMatT=0.
 ***** Axes restored to original set *****
 -------------------------------------------------------------------
 Center     Atomic                   Forces (Hartrees/Bohr)
 Number     Number              X              Y              Z
 -------------------------------------------------------------------
      1        6          -0.000408328   -0.000558258    0.000197504
      2        6          -0.000056751    0.000603364   -0.000389549
      3        8          -0.000061325    0.000082939    0.000502241
      4        8           0.000209598   -0.000386316   -0.000264042
      5        1           0.000114468    0.000029875   -0.000029992
      6        1           0.000112459    0.000155928   -0.000055726
      7        1           0.000089879    0.000072468    0.000039563
 -------------------------------------------------------------------
 Cartesian Forces:  Max     0.000603364 RMS     0.000278776

 GradGradGradGradGradGradGradGradGradGradGradGradGradGradGradGradGradGrad
 Berny optimization.
 Using GEDIIS/GDIIS optimizer.
 FormGI is forming the generalized inverse of G from B-inverse, IUseBI=4.
 Internal  Forces:  Max     0.000495423 RMS     0.000195829
 Search for a local minimum.
 Step number   5 out of a maximum of   31
 All quantities printed in internal units (Hartrees-Bohrs-Radians)
 Mixed Optimization -- En-DIIS/RFO-DIIS
 Swapping is turned off.
 Update second derivatives using D2CorX and points    1    2    3    4    5
 DE= -2.83D-05 DEPred=-2.64D-05 R= 1.07D+00
 TightC=F SS=  1.41D+00  RLast= 2.02D-02 DXNew= 8.4853D-01 6.0690D-02
 Trust test= 1.07D+00 RLast= 2.02D-02 DXMaxT set to 5.05D-01
 ITU=  1  1  1  1  0
     Eigenvalues ---    0.00356   0.04366   0.07057   0.07235   0.14009
     Eigenvalues ---    0.16000   0.16292   0.22540   0.25000   0.27250
     Eigenvalues ---    0.33153   0.34128   0.34227   0.44003   0.52672
 En-DIIS/RFO-DIIS IScMMF=        0 using points:     5    4
 RFO step:  Lambda=-1.43272802D-06.
 DidBck=F Rises=F RFO-DIIS coefs:    1.02547   -0.02547
 Iteration  1 RMS(Cart)=  0.00071030 RMS(Int)=  0.00000053
 Iteration  2 RMS(Cart)=  0.00000048 RMS(Int)=  0.00000029
 Variable       Old X    -DE/DX   Delta X   Delta X   Delta X     New X
                                 (Linear)    (Quad)   (Total)
    R1        2.86831  -0.00034  -0.00017  -0.00146  -0.00163   2.86669
    R2        2.07439   0.00003  -0.00002   0.00006   0.00004   2.07443
    R3        2.10903   0.00010   0.00009   0.00042   0.00052   2.10955
    R4        2.07439   0.00003  -0.00002   0.00006   0.00004   2.07443
    R5        2.51088   0.00050  -0.00004   0.00107   0.00103   2.51191
    R6        2.51088   0.00050  -0.00004   0.00107   0.00103   2.51191
    A1        1.92315   0.00007  -0.00002   0.00051   0.00049   1.92364
    A2        1.91537   0.00020   0.00012   0.00133   0.00144   1.91682
    A3        1.92315   0.00007  -0.00002   0.00051   0.00049   1.92364
    A4        1.89770  -0.00016  -0.00006  -0.00129  -0.00135   1.89635
    A5        1.90635  -0.00003   0.00003   0.00018   0.00021   1.90657
    A6        1.89770  -0.00016  -0.00006  -0.00129  -0.00135   1.89635
    A7        2.05422  -0.00014  -0.00005  -0.00045  -0.00050   2.05372
    A8        2.05422  -0.00014  -0.00005  -0.00045  -0.00050   2.05372
    A9        1.80403   0.00020  -0.00015   0.00082   0.00066   1.80469
    D1       -3.10511  -0.00001  -0.00018  -0.00027  -0.00045  -3.10556
    D2        1.00027  -0.00004   0.00016  -0.00061  -0.00045   0.99982
    D3        1.08890   0.00001  -0.00017   0.00017   0.00000   1.08890
    D4       -1.08890  -0.00001   0.00017  -0.00017   0.00000  -1.08890
    D5       -1.00027   0.00004  -0.00016   0.00061   0.00045  -0.99982
    D6        3.10511   0.00001   0.00018   0.00027   0.00045   3.10556
         Item               Value     Threshold  Converged?
 Maximum Force            0.000495     0.000015     NO 
 RMS     Force            0.000196     0.000010     NO 
 Maximum Displacement     0.001354     0.000060     NO 
 RMS     Displacement     0.000711     0.000040     NO 
 Predicted change in Energy=-1.375382D-06
 GradGradGradGradGradGradGradGradGradGradGradGradGradGradGradGradGradGrad

                          Input orientation:                          
 ---------------------------------------------------------------------
 Center     Atomic      Atomic             Coordinates (Angstroms)
 Number     Number       Type             X           Y           Z
 ---------------------------------------------------------------------
      1          6           0        0.008981    1.438817   -1.873545
      2          6           0       -0.645429    0.180845   -1.334566
      3          8           0       -0.746505    0.054345   -0.015218
      4          8           0       -0.144229   -0.988826   -1.718709
      5          1           0       -0.004906    1.433213   -2.971185
      6          1           0        1.069916    1.490596   -1.530155
      7          1           0       -0.521642    2.328226   -1.509635
 ---------------------------------------------------------------------
                    Distance matrix (angstroms):
                    1          2          3          4          5
     1  C    0.000000
     2  C    1.516985   0.000000
     3  O    2.437396   1.329247   0.000000
     4  O    2.437396   1.329247   2.086342   0.000000
     5  H    1.097743   2.158058   3.344994   2.730271   0.000000
     6  H    1.116325   2.167052   2.767171   2.767171   1.798639
     7  H    1.097743   2.158058   2.730271   3.344994   1.790026
                    6          7
     6  H    0.000000
     7  H    1.798639   0.000000
 Stoichiometry    C2H3O2(1-,3)
 Framework group  C1[X(C2H3O2)]
 Deg. of freedom    15
 Full point group                 C1      NOp   1
 Largest Abelian subgroup         C1      NOp   1
 Largest concise Abelian subgroup C1      NOp   1
                         Standard orientation:                         
 ---------------------------------------------------------------------
 Center     Atomic      Atomic             Coordinates (Angstroms)
 Number     Number       Type             X           Y           Z
 ---------------------------------------------------------------------
      1          6           0        1.386770    0.000000    0.046450
      2          6           0       -0.087250    0.000000   -0.312029
      3          8           0       -0.815962    1.043171    0.072252
      4          8           0       -0.815962   -1.043171    0.072252
      5          1           0        1.875889   -0.895013   -0.359447
      6          1           0        1.506493    0.000000    1.156336
      7          1           0        1.875889    0.895013   -0.359447
 ---------------------------------------------------------------------
 Rotational constants (GHZ):     12.8306057      8.9679203      5.6267105
 Standard basis: Aug-CC-pVDZ (5D, 7F)
 There are   127 symmetry adapted cartesian basis functions of A   symmetry.
 There are   119 symmetry adapted basis functions of A   symmetry.
   119 basis functions,   205 primitive gaussians,   127 cartesian basis functions
    17 alpha electrons       15 beta electrons
       nuclear repulsion energy       110.4638257230 Hartrees.
 NAtoms=    7 NActive=    7 NUniq=    7 SFac= 1.00D+00 NAtFMM=   60 NAOKFM=F Big=F
 Integral buffers will be    131072 words long.
 Raffenetti 2 integral format.
 Two-electron integral symmetry is turned on.
 One-electron integrals computed using PRISM.
 NBasis=   119 RedAO= T EigKep=  2.08D-04  NBF=   119
 NBsUse=   119 1.00D-06 EigRej= -1.00D+00 NBFU=   119
 Initial guess from the checkpoint file:  "OAC.chk"
 B after Tr=     0.000000    0.000000    0.000000
         Rot=    1.000000    0.000000   -0.000027    0.000000 Ang=   0.00 deg.
 Initial guess <Sx>= 0.0000 <Sy>= 0.0000 <Sz>= 1.0000 <S**2>= 2.0160 S= 1.0053
 Keep R1 and R2 ints in memory in canonical form, NReq=52103897.
 Requested convergence on RMS density matrix=1.00D-10 within 128 cycles.
 Requested convergence on MAX density matrix=1.00D-08.
 Requested convergence on             energy=1.00D-08.
 No special actions if energy rises.
 SCF Done:  E(UM062X) =  -228.312670325     A.U. after   22 cycles
            NFock= 22  Conv=0.77D-10     -V/T= 2.0058
 <Sx>= 0.0000 <Sy>= 0.0000 <Sz>= 1.0000 <S**2>= 2.0160 S= 1.0053
 <L.S>= 0.000000000000E+00
 Annihilation of the first spin contaminant:
 S**2 before annihilation     2.0160,   after     2.0001
 Calling FoFJK, ICntrl=      2127 FMM=F ISym2X=0 I1Cent= 0 IOpClX= 1 NMat=1 NMatS=1 NMatT=0.
 ***** Axes restored to original set *****
 -------------------------------------------------------------------
 Center     Atomic                   Forces (Hartrees/Bohr)
 Number     Number              X              Y              Z
 -------------------------------------------------------------------
      1        6          -0.000026949   -0.000100434    0.000051971
      2        6          -0.000018266    0.000052120   -0.000038375
      3        8          -0.000003189   -0.000027379    0.000052327
      4        8           0.000014106   -0.000057334    0.000003409
      5        1           0.000032589    0.000035680   -0.000038487
      6        1          -0.000017604    0.000038673   -0.000029906
      7        1           0.000019313    0.000058674   -0.000000940
 -------------------------------------------------------------------
 Cartesian Forces:  Max     0.000100434 RMS     0.000041037

 GradGradGradGradGradGradGradGradGradGradGradGradGradGradGradGradGradGrad
 Berny optimization.
 Using GEDIIS/GDIIS optimizer.
 FormGI is forming the generalized inverse of G from B-inverse, IUseBI=4.
 Internal  Forces:  Max     0.000055001 RMS     0.000036203
 Search for a local minimum.
 Step number   6 out of a maximum of   31
 All quantities printed in internal units (Hartrees-Bohrs-Radians)
 Mixed Optimization -- En-DIIS/RFO-DIIS
 Swapping is turned off.
 Update second derivatives using D2CorX and points    1    2    3    4    5
                                                      6
 DE= -1.50D-06 DEPred=-1.38D-06 R= 1.09D+00
 TightC=F SS=  1.41D+00  RLast= 3.62D-03 DXNew= 8.4853D-01 1.0845D-02
 Trust test= 1.09D+00 RLast= 3.62D-03 DXMaxT set to 5.05D-01
 ITU=  1  1  1  1  1  0
     Eigenvalues ---    0.00356   0.04374   0.06879   0.07225   0.11827
     Eigenvalues ---    0.16000   0.16501   0.22458   0.25000   0.30587
     Eigenvalues ---    0.33335   0.34128   0.35032   0.44003   0.50271
 En-DIIS/RFO-DIIS IScMMF=        0 using points:     6    5    4
 RFO step:  Lambda=-6.13056864D-08.
 DidBck=F Rises=F RFO-DIIS coefs:    1.10351   -0.10487    0.00136
 Iteration  1 RMS(Cart)=  0.00027128 RMS(Int)=  0.00000008
 Iteration  2 RMS(Cart)=  0.00000006 RMS(Int)=  0.00000006
 Variable       Old X    -DE/DX   Delta X   Delta X   Delta X     New X
                                 (Linear)    (Quad)   (Total)
    R1        2.86669   0.00004  -0.00016   0.00013  -0.00003   2.86666
    R2        2.07443   0.00004   0.00001   0.00011   0.00011   2.07454
    R3        2.10955  -0.00002   0.00005  -0.00005  -0.00001   2.10954
    R4        2.07443   0.00004   0.00001   0.00011   0.00011   2.07454
    R5        2.51191   0.00006   0.00011   0.00005   0.00016   2.51207
    R6        2.51191   0.00005   0.00011   0.00005   0.00016   2.51207
    A1        1.92364   0.00005   0.00005   0.00031   0.00037   1.92401
    A2        1.91682   0.00004   0.00014   0.00024   0.00039   1.91720
    A3        1.92364   0.00005   0.00005   0.00031   0.00037   1.92401
    A4        1.89635  -0.00005  -0.00014  -0.00035  -0.00049   1.89587
    A5        1.90657  -0.00004   0.00002  -0.00020  -0.00018   1.90639
    A6        1.89635  -0.00005  -0.00014  -0.00035  -0.00049   1.89587
    A7        2.05372   0.00003  -0.00005   0.00012   0.00007   2.05379
    A8        2.05372   0.00003  -0.00005   0.00012   0.00007   2.05379
    A9        1.80469  -0.00003   0.00008  -0.00029  -0.00021   1.80448
    D1       -3.10556  -0.00001  -0.00004  -0.00018  -0.00022  -3.10578
    D2        0.99982  -0.00001  -0.00006   0.00002  -0.00003   0.99978
    D3        1.08890   0.00000   0.00001  -0.00010  -0.00009   1.08881
    D4       -1.08890   0.00000  -0.00001   0.00010   0.00009  -1.08881
    D5       -0.99982   0.00001   0.00006  -0.00002   0.00003  -0.99978
    D6        3.10556   0.00001   0.00004   0.00018   0.00022   3.10578
         Item               Value     Threshold  Converged?
 Maximum Force            0.000055     0.000015     NO 
 RMS     Force            0.000036     0.000010     NO 
 Maximum Displacement     0.000524     0.000060     NO 
 RMS     Displacement     0.000271     0.000040     NO 
 Predicted change in Energy=-7.549701D-08
 GradGradGradGradGradGradGradGradGradGradGradGradGradGradGradGradGradGrad

                          Input orientation:                          
 ---------------------------------------------------------------------
 Center     Atomic      Atomic             Coordinates (Angstroms)
 Number     Number       Type             X           Y           Z
 ---------------------------------------------------------------------
      1          6           0        0.008867    1.438712   -1.873520
      2          6           0       -0.645525    0.180749   -1.334541
      3          8           0       -0.746545    0.054113   -0.015119
      4          8           0       -0.144283   -0.989035   -1.718572
      5          1           0       -0.004724    1.433400   -2.971225
      6          1           0        1.069850    1.490874   -1.530349
      7          1           0       -0.521455    2.328405   -1.509688
 ---------------------------------------------------------------------
                    Distance matrix (angstroms):
                    1          2          3          4          5
     1  C    0.000000
     2  C    1.516970   0.000000
     3  O    2.437502   1.329329   0.000000
     4  O    2.437502   1.329329   2.086296   0.000000
     5  H    1.097802   2.158355   3.345339   2.730715   0.000000
     6  H    1.116322   2.167322   2.767579   2.767579   1.798371
     7  H    1.097802   2.158355   2.730715   3.345339   1.790010
                    6          7
     6  H    0.000000
     7  H    1.798371   0.000000
 Stoichiometry    C2H3O2(1-,3)
 Framework group  CS[SG(C2H),X(H2O2)]
 Deg. of freedom     9
 Full point group                 CS      NOp   2
 Omega: Change in point group or standard orientation.

 Old FWG=C01  [X(C2H3O2)]
 New FWG=CS   [SG(C2H1),X(H2O2)]
 Largest Abelian subgroup         CS      NOp   2
 Largest concise Abelian subgroup CS      NOp   2
                         Standard orientation:                         
 ---------------------------------------------------------------------
 Center     Atomic      Atomic             Coordinates (Angstroms)
 Number     Number       Type             X           Y           Z
 ---------------------------------------------------------------------
      1          6           0        0.062684   -1.386156    0.000000
      2          6           0       -0.313086    0.083537    0.000000
      3          8           0        0.062684    0.816856   -1.043148
      4          8           0        0.062684    0.816856    1.043148
      5          1           0       -0.337190   -1.880358    0.895005
      6          1           0        1.173855   -1.493260    0.000000
      7          1           0       -0.337190   -1.880358   -0.895005
 ---------------------------------------------------------------------
 Rotational constants (GHZ):     12.8311508      8.9663246      5.6261759
 Standard basis: Aug-CC-pVDZ (5D, 7F)
 There are    77 symmetry adapted cartesian basis functions of A'  symmetry.
 There are    50 symmetry adapted cartesian basis functions of A"  symmetry.
 There are    71 symmetry adapted basis functions of A'  symmetry.
 There are    48 symmetry adapted basis functions of A"  symmetry.
   119 basis functions,   205 primitive gaussians,   127 cartesian basis functions
    17 alpha electrons       15 beta electrons
       nuclear repulsion energy       110.4590216620 Hartrees.
 NAtoms=    7 NActive=    7 NUniq=    5 SFac= 1.96D+00 NAtFMM=   60 NAOKFM=F Big=F
 Integral buffers will be    131072 words long.
 Raffenetti 2 integral format.
 Two-electron integral symmetry is turned on.
 One-electron integrals computed using PRISM.
 NBasis=   119 RedAO= T EigKep=  2.86D-04  NBF=    71    48
 NBsUse=   119 1.00D-06 EigRej= -1.00D+00 NBFU=    71    48
 Initial guess from the checkpoint file:  "OAC.chk"
 B after Tr=     0.000000    0.000000    0.000000
         Rot=    0.502927    0.502927   -0.497056    0.497056 Ang= 119.61 deg.
 Initial guess orbital symmetries:
 Alpha Orbitals:
       Occupied  (A") (A') (A') (A') (A') (A") (A') (A') (A') (A")
                 (A') (A") (A') (A') (A") (A") (A')
       Virtual   (A') (A') (A') (A') (A') (A') (A') (A') (A') (A')
                 (A') (A') (A') (A') (A') (A') (A') (A') (A') (A')
                 (A') (A') (A') (A') (A') (A') (A') (A') (A') (A')
                 (A') (A') (A') (A') (A') (A') (A') (A') (A') (A')
                 (A') (A') (A') (A') (A') (A') (A') (A') (A') (A')
                 (A') (A') (A') (A') (A') (A') (A') (A') (A') (A')
                 (A") (A") (A") (A") (A") (A") (A") (A") (A") (A")
                 (A") (A") (A") (A") (A") (A") (A") (A") (A") (A")
                 (A") (A") (A") (A") (A") (A") (A") (A") (A") (A")
                 (A") (A") (A") (A") (A") (A") (A") (A") (A") (A")
                 (A") (A")
 Beta  Orbitals:
       Occupied  (A') (A") (A') (A') (A') (A") (A') (A') (A") (A')
                 (A') (A") (A') (A") (A')
       Virtual   (A') (A') (A') (A') (A') (A') (A') (A') (A') (A')
                 (A') (A') (A') (A') (A') (A') (A') (A') (A') (A')
                 (A') (A') (A') (A') (A') (A') (A') (A') (A') (A')
                 (A') (A') (A') (A') (A') (A') (A') (A') (A') (A')
                 (A') (A') (A') (A') (A') (A') (A') (A') (A') (A')
[...]
 RMS     Displacement     0.000008     0.000040     YES
 Predicted change in Energy=-1.005909D-10
 Optimization completed.
    -- Stationary point found.
                           ----------------------------
                           !   Optimized Parameters   !
                           ! (Angstroms and Degrees)  !
 --------------------------                            --------------------------
 ! Name  Definition              Value          Derivative Info.                !
 --------------------------------------------------------------------------------
 ! R1    R(1,2)                  1.517          -DE/DX =    0.0                 !
 ! R2    R(1,5)                  1.0978         -DE/DX =    0.0                 !
 ! R3    R(1,6)                  1.1163         -DE/DX =    0.0                 !
 ! R4    R(1,7)                  1.0978         -DE/DX =    0.0                 !
 ! R5    R(2,3)                  1.3293         -DE/DX =    0.0                 !
 ! R6    R(2,4)                  1.3293         -DE/DX =    0.0                 !
 ! A1    A(2,1,5)              110.2396         -DE/DX =    0.0                 !
 ! A2    A(2,1,6)              109.8498         -DE/DX =    0.0                 !
 ! A3    A(2,1,7)              110.2396         -DE/DX =    0.0                 !
 ! A4    A(5,1,6)              108.6248         -DE/DX =    0.0                 !
 ! A5    A(5,1,7)              109.2233         -DE/DX =    0.0                 !
 ! A6    A(6,1,7)              108.6248         -DE/DX =    0.0                 !
 ! A7    A(1,2,3)              117.6704         -DE/DX =    0.0                 !
 ! A8    A(1,2,4)              117.6704         -DE/DX =    0.0                 !
 ! A9    A(3,2,4)              103.3902         -DE/DX =    0.0                 !
 ! D1    D(5,1,2,3)           -177.9485         -DE/DX =    0.0                 !
 ! D2    D(5,1,2,4)             57.2873         -DE/DX =    0.0                 !
 ! D3    D(6,1,2,3)             62.3821         -DE/DX =    0.0                 !
 ! D4    D(6,1,2,4)            -62.3821         -DE/DX =    0.0                 !
 ! D5    D(7,1,2,3)            -57.2873         -DE/DX =    0.0                 !
 ! D6    D(7,1,2,4)            177.9485         -DE/DX =    0.0                 !
 --------------------------------------------------------------------------------
 GradGradGradGradGradGradGradGradGradGradGradGradGradGradGradGradGradGrad

                          Input orientation:                          
 ---------------------------------------------------------------------
 Center     Atomic      Atomic             Coordinates (Angstroms)
 Number     Number       Type             X           Y           Z
 ---------------------------------------------------------------------
      1          6           0        0.008870    1.438696   -1.873510
      2          6           0       -0.645566    0.180719   -1.334537
      3          8           0       -0.746534    0.054117   -0.015098
      4          8           0       -0.144263   -0.989047   -1.718577
      5          1           0       -0.004719    1.433439   -2.971223
      6          1           0        1.069836    1.490868   -1.530350
      7          1           0       -0.521439    2.328424   -1.509719
 ---------------------------------------------------------------------
                    Distance matrix (angstroms):
                    1          2          3          4          5
     1  C    0.000000
     2  C    1.516999   0.000000
     3  O    2.437496   1.329339   0.000000
     4  O    2.437496   1.329339   2.086327   0.000000
     5  H    1.097810   2.158410   3.345369   2.730757   0.000000
     6  H    1.116301   2.167357   2.767569   2.767569   1.798355
     7  H    1.097810   2.158410   2.730757   3.345369   1.789970
                    6          7
     6  H    0.000000
     7  H    1.798355   0.000000
 Stoichiometry    C2H3O2(1-,3)
 Framework group  CS[SG(C2H),X(H2O2)]
 Deg. of freedom     9
 Full point group                 CS      NOp   2
 Largest Abelian subgroup         CS      NOp   2
 Largest concise Abelian subgroup CS      NOp   2
                         Standard orientation:                         
 ---------------------------------------------------------------------
 Center     Atomic      Atomic             Coordinates (Angstroms)
 Number     Number       Type             X           Y           Z
 ---------------------------------------------------------------------
      1          6           0        0.062694   -1.386148    0.000000
      2          6           0       -0.313125    0.083561    0.000000
      3          8           0        0.062694    0.816849   -1.043164
      4          8           0        0.062694    0.816849    1.043164
      5          1           0       -0.337182   -1.880404    0.894985
      6          1           0        1.173845   -1.493257    0.000000
      7          1           0       -0.337182   -1.880404   -0.894985
 ---------------------------------------------------------------------
 Rotational constants (GHZ):     12.8307249      8.9663063      5.6261264

 **********************************************************************

            Population analysis using the SCF density.

 **********************************************************************

 Orbital symmetries:
 Alpha Orbitals:
       Occupied  (A") (A') (A') (A') (A') (A") (A') (A') (A') (A")
                 (A') (A") (A') (A') (A") (A") (A')
       Virtual   (A') (A") (A') (A') (A") (A') (A') (A') (A") (A')
                 (A') (A") (A') (A") (A') (A') (A") (A') (A") (A")
                 (A') (A') (A') (A") (A') (A') (A") (A") (A') (A")
                 (A') (A") (A') (A') (A') (A") (A') (A') (A") (A')
                 (A') (A") (A') (A") (A') (A') (A") (A') (A') (A")
                 (A') (A') (A") (A') (A") (A') (A") (A") (A') (A")
                 (A') (A') (A") (A') (A") (A') (A') (A") (A") (A")
                 (A') (A') (A') (A") (A') (A") (A') (A") (A') (A")
                 (A') (A") (A') (A') (A') (A") (A') (A') (A') (A")
                 (A') (A") (A") (A") (A') (A") (A') (A') (A") (A')
                 (A") (A')
 Beta  Orbitals:
       Occupied  (A') (A") (A') (A') (A') (A") (A') (A') (A") (A')
                 (A') (A") (A') (A") (A')
       Virtual   (A") (A') (A") (A') (A') (A') (A') (A") (A') (A")
                 (A') (A') (A') (A") (A') (A") (A') (A") (A') (A")
                 (A') (A') (A") (A') (A') (A") (A') (A') (A") (A")
                 (A') (A') (A") (A") (A') (A') (A") (A') (A') (A')
                 (A") (A') (A') (A") (A') (A") (A') (A') (A") (A')
                 (A') (A") (A') (A') (A") (A') (A") (A') (A") (A")
                 (A') (A") (A') (A') (A") (A') (A") (A') (A") (A')
                 (A") (A") (A') (A') (A') (A") (A') (A") (A') (A")
                 (A') (A") (A') (A") (A') (A') (A') (A") (A') (A')
                 (A') (A") (A') (A") (A") (A") (A') (A") (A') (A')
                 (A") (A') (A") (A')
 The electronic state is 3-A".
 Alpha  occ. eigenvalues --  -19.44198 -19.44194 -10.41797 -10.36870  -0.98164
 Alpha  occ. eigenvalues --   -0.86132  -0.63743  -0.42698  -0.34050  -0.32870
 Alpha  occ. eigenvalues --   -0.32717  -0.26709  -0.25975  -0.17782  -0.17554
 Alpha  occ. eigenvalues --   -0.15754   0.02546
 Alpha virt. eigenvalues --    0.13749   0.14460   0.16017   0.18556   0.22053
 Alpha virt. eigenvalues --    0.22248   0.23800   0.26288   0.26424   0.27786
 Alpha virt. eigenvalues --    0.32270   0.33098   0.35584   0.36174   0.36710
 Alpha virt. eigenvalues --    0.39944   0.39990   0.41768   0.41944   0.43562
 Alpha virt. eigenvalues --    0.44464   0.47489   0.50254   0.51168   0.52870
 Alpha virt. eigenvalues --    0.56764   0.58086   0.60816   0.61475   0.62355
 Alpha virt. eigenvalues --    0.62873   0.65878   0.66036   0.67262   0.72754
 Alpha virt. eigenvalues --    0.73320   0.74644   0.77331   0.81235   0.83547
 Alpha virt. eigenvalues --    0.85341   0.85905   0.87246   0.94585   0.97460
 Alpha virt. eigenvalues --    0.99055   1.06681   1.08577   1.11733   1.13666
 Alpha virt. eigenvalues --    1.18018   1.19997   1.22591   1.25839   1.27692
 Alpha virt. eigenvalues --    1.29757   1.31900   1.32755   1.37593   1.42188
 Alpha virt. eigenvalues --    1.43256   1.45565   1.48431   1.68612   1.68883
 Alpha virt. eigenvalues --    1.71138   1.78402   1.79152   1.84025   1.85572
 Alpha virt. eigenvalues --    1.86643   1.93475   1.96414   2.02627   2.06488
 Alpha virt. eigenvalues --    2.11820   2.13529   2.16465   2.16831   2.23462
 Alpha virt. eigenvalues --    2.25712   2.31478   2.32718   2.38611   2.58113
 Alpha virt. eigenvalues --    2.63846   2.67572   2.70228   2.80301   2.85287
 Alpha virt. eigenvalues --    2.97090   3.07909   3.57041   3.57928   3.58952
 Alpha virt. eigenvalues --    3.59928   3.60720   3.69125   3.69661   3.78641
 Alpha virt. eigenvalues --    3.84850   3.84895
  Beta  occ. eigenvalues --  -19.42832 -19.42831 -10.41341 -10.36771  -0.93916
  Beta  occ. eigenvalues --   -0.80800  -0.62826  -0.39494  -0.31357  -0.30568
  Beta  occ. eigenvalues --   -0.28737  -0.24786  -0.20459  -0.11910  -0.11357
  Beta virt. eigenvalues --    0.11579   0.13151   0.15800   0.16468   0.16886
  Beta virt. eigenvalues --    0.19553   0.20894   0.20963   0.22732   0.23619
  Beta virt. eigenvalues --    0.25342   0.27956   0.29899   0.30340   0.33892
  Beta virt. eigenvalues --    0.35248   0.36212   0.38437   0.39088   0.40411
  Beta virt. eigenvalues --    0.41946   0.43444   0.44091   0.46359   0.48133
  Beta virt. eigenvalues --    0.49868   0.51044   0.55495   0.56493   0.59033
  Beta virt. eigenvalues --    0.60482   0.61123   0.62582   0.65235   0.65545
  Beta virt. eigenvalues --    0.66088   0.70112   0.70852   0.72055   0.75859
  Beta virt. eigenvalues --    0.79759   0.82108   0.83679   0.84345   0.86399
  Beta virt. eigenvalues --    0.93603   0.96723   0.99276   1.05953   1.07278
  Beta virt. eigenvalues --    1.10867   1.12223   1.17632   1.20086   1.22823
  Beta virt. eigenvalues --    1.26273   1.28246   1.29200   1.32533   1.34424
  Beta virt. eigenvalues --    1.37665   1.42426   1.42742   1.46039   1.48050
  Beta virt. eigenvalues --    1.68984   1.69650   1.72129   1.79236   1.80215
  Beta virt. eigenvalues --    1.83617   1.86500   1.87084   1.93492   1.97080
  Beta virt. eigenvalues --    2.04030   2.07134   2.12648   2.13113   2.16506
  Beta virt. eigenvalues --    2.16844   2.24581   2.26267   2.32010   2.33990
  Beta virt. eigenvalues --    2.38752   2.58339   2.64286   2.67880   2.70319
  Beta virt. eigenvalues --    2.80768   2.85393   2.97615   3.10038   3.60368
  Beta virt. eigenvalues --    3.60658   3.61768   3.62345   3.63747   3.70977
  Beta virt. eigenvalues --    3.71095   3.80630   3.87201   3.87619
          Condensed to atoms (all electrons):
               1          2          3          4          5          6
     1  C    5.224996   0.131573  -0.028838  -0.028838   0.170822  -0.541337
     2  C    0.131573   5.719057  -0.115777  -0.115777  -0.050830   0.090457
     3  O   -0.028838  -0.115777   8.794734  -0.027314   0.023702   0.003677
     4  O   -0.028838  -0.115777  -0.027314   8.794734  -0.010230   0.003677
     5  H    0.170822  -0.050830   0.023702  -0.010230   1.448070  -0.118114
     6  H   -0.541337   0.090457   0.003677   0.003677  -0.118114   2.139327
     7  H    0.170822  -0.050830  -0.010230   0.023702  -0.186701  -0.118114
               7
     1  C    0.170822
     2  C   -0.050830
     3  O   -0.010230
     4  O    0.023702
     5  H   -0.186701
     6  H   -0.118114
     7  H    1.448070
          Atomic-Atomic Spin Densities.
               1          2          3          4          5          6
     1  C    0.964113  -0.086501   0.004954   0.004954  -0.113908  -0.877562
     2  C   -0.086501   1.125611  -0.231003  -0.231003   0.035996   0.030940
     3  O    0.004954  -0.231003   0.865134  -0.044778  -0.004752   0.011483
     4  O    0.004954  -0.231003  -0.044778   0.865134   0.003333   0.011483
     5  H   -0.113908   0.035996  -0.004752   0.003333  -0.030385   0.083746
     6  H   -0.877562   0.030940   0.011483   0.011483   0.083746   0.957911
     7  H   -0.113908   0.035996   0.003333  -0.004752   0.039636   0.083746
               7
     1  C   -0.113908
     2  C    0.035996
     3  O    0.003333
     4  O   -0.004752
     5  H    0.039636
     6  H    0.083746
     7  H   -0.030385
 Mulliken charges and spin densities:
               1          2
     1  C    0.900799  -0.217857
     2  C    0.392126   0.680034
     3  O   -0.639955   0.604371
     4  O   -0.639955   0.604371
     5  H   -0.276720   0.013666
     6  H   -0.459574   0.301748
     7  H   -0.276720   0.013666
 Sum of Mulliken charges =  -1.00000   2.00000
 Mulliken charges and spin densities with hydrogens summed into heavy atoms:
               1          2
     1  C   -0.112215   0.111223
     2  C    0.392126   0.680034
     3  O   -0.639955   0.604371
     4  O   -0.639955   0.604371
 Electronic spatial extent (au):  <R**2>=            262.3797
 Charge=             -1.0000 electrons
 Dipole moment (field-independent basis, Debye):
    X=              0.0099    Y=             -2.5883    Z=              0.0000  Tot=              2.5883
 Quadrupole moment (field-independent basis, Debye-Ang):
   XX=            -31.8831   YY=            -34.1838   ZZ=            -33.0368
   XY=              0.7630   XZ=              0.0000   YZ=              0.0000
 Traceless Quadrupole moment (field-independent basis, Debye-Ang):
   XX=              1.1515   YY=             -1.1493   ZZ=             -0.0023
   XY=              0.7630   XZ=              0.0000   YZ=              0.0000
 Octapole moment (field-independent basis, Debye-Ang**2):
  XXX=              3.0875  YYY=             12.7562  ZZZ=              0.0000  XYY=             -3.1093
  XXY=              5.8143  XXZ=              0.0000  XZZ=             -1.6351  YZZ=             -2.1624
  YYZ=              0.0000  XYZ=              0.0000
 Hexadecapole moment (field-independent basis, Debye-Ang**3):
 XXXX=            -93.4437 YYYY=           -243.8605 ZZZZ=           -135.1093 XXXY=              9.0440
 XXXZ=              0.0000 YYYX=             13.5848 YYYZ=              0.0000 ZZZX=              0.0000
 ZZZY=              0.0000 XXYY=            -56.0445 XXZZ=            -36.8829 YYZZ=            -61.9997
 XXYZ=              0.0000 YYXZ=              0.0000 ZZXY=              3.0331
 N-N= 1.104581655041D+02 E-N=-7.643324774077D+02  KE= 2.269845213987D+02
 Symmetry A'   KE= 1.489067290239D+02
 Symmetry A"   KE= 7.807779237481D+01
                          Isotropic Fermi Contact Couplings
        Atom                 a.u.       MegaHertz       Gauss      10(-4) cm-1
     1  C(13)              0.09677      54.39430      19.40924      18.14399
     2  C(13)              0.16401      92.19047      32.89585      30.75143
     3  O(17)              0.14512     -43.98587     -15.69525     -14.67211
     4  O(17)              0.14512     -43.98587     -15.69525     -14.67211
     5  H(1)               0.00205       4.58928       1.63757       1.53082
     6  H(1)               0.00982      21.94948       7.83212       7.32156
     7  H(1)               0.00205       4.58928       1.63757       1.53082
 --------------------------------------------------------
       Center         ----  Spin Dipole Couplings  ----
                      3XX-RR        3YY-RR        3ZZ-RR
 --------------------------------------------------------
     1   Atom       -0.048872      0.060109     -0.011238
     2   Atom        0.554587     -0.293022     -0.261565
     3   Atom       -0.043600     -0.748007      0.791607
     4   Atom       -0.043600     -0.748007      0.791607
     5   Atom       -0.012770      0.020377     -0.007607
     6   Atom       -0.001052      0.012207     -0.011155
     7   Atom       -0.012770      0.020377     -0.007607
 --------------------------------------------------------
                        XY            XZ            YZ
 --------------------------------------------------------
     1   Atom        0.000001      0.000000      0.000000
     2   Atom        0.004112      0.000000      0.000000
     3   Atom        0.437141      0.962302      1.165766
     4   Atom        0.437141     -0.962302     -1.165766
     5   Atom        0.001270     -0.001119     -0.013719
     6   Atom       -0.018239      0.000000      0.000000
     7   Atom        0.001270      0.001119      0.013719
 --------------------------------------------------------


 ---------------------------------------------------------------------------------
              Anisotropic Spin Dipole Couplings in Principal Axis System
 ---------------------------------------------------------------------------------

       Atom             a.u.   MegaHertz   Gauss  10(-4) cm-1        Axes

              Baa    -0.0489    -6.558    -2.340    -2.188  1.0000  0.0000  0.0000
     1 C(13)  Bbb    -0.0112    -1.508    -0.538    -0.503  0.0000  0.0000  1.0000
              Bcc     0.0601     8.066     2.878     2.691  0.0000  1.0000  0.0000
 
              Baa    -0.2930   -39.323   -14.032   -13.117 -0.0049  1.0000  0.0000
     2 C(13)  Bbb    -0.2616   -35.099   -12.524   -11.708  0.0000  0.0000  1.0000
              Bcc     0.5546    74.423    26.556    24.825  1.0000  0.0049  0.0000
 
              Baa    -1.3806    99.896    35.646    33.322  0.0753  0.8643 -0.4972
     3 O(17)  Bbb    -0.5906    42.737    15.249    14.255  0.8826 -0.2898 -0.3701
              Bcc     1.9712  -142.633   -50.895   -47.577  0.4640  0.4110  0.7847
 
              Baa    -1.3806    99.896    35.646    33.322  0.0753  0.8643  0.4972
     4 O(17)  Bbb    -0.5906    42.737    15.249    14.255  0.8826 -0.2898  0.3701
              Bcc     1.9712  -142.633   -50.895   -47.577 -0.4640 -0.4110  0.7847
 
              Baa    -0.0136    -7.261    -2.591    -2.422  0.5827  0.2854  0.7609
     5 H(1)   Bbb    -0.0124    -6.636    -2.368    -2.214  0.8116 -0.2518 -0.5271
              Bcc     0.0260    13.897     4.959     4.636  0.0412  0.9248 -0.3783
 
              Baa    -0.0138    -7.378    -2.633    -2.461  0.8190  0.5738  0.0000
     6 H(1)   Bbb    -0.0112    -5.952    -2.124    -1.985  0.0000  0.0000  1.0000
              Bcc     0.0250    13.330     4.756     4.446 -0.5738  0.8190  0.0000
 
              Baa    -0.0136    -7.261    -2.591    -2.422 -0.5827 -0.2854  0.7609
     7 H(1)   Bbb    -0.0124    -6.636    -2.368    -2.214  0.8116 -0.2518  0.5271
              Bcc     0.0260    13.897     4.959     4.636  0.0412  0.9248  0.3783
 

 ---------------------------------------------------------------------------------

 1\1\GINC-NODE13\FOpt\UM062X\Aug-CC-pVDZ\C2H3O2(1-,3)\ROOT\10-Apr-2020\
 0\\#N M062X/aug-cc-pvdz OPT(tight) 5d 7f int(grid=ultrafine, exactbasi
 stransform) scf(conver=10)\\Acetate\\-1,3\C,0.0088701256,1.4386961275,
 -1.8735095623\C,-0.6455659828,0.1807188507,-1.3345370588\O,-0.74653372
 72,0.0541170771,-0.0150976375\O,-0.1442626811,-0.9890466865,-1.7185767
 297\H,-0.004719025,1.433439113,-2.9712229899\H,1.0698355602,1.49086783
 28,-1.5303500058\H,-0.5214389467,2.3284240235,-1.509718923\\Version=ES
 64L-G09RevD.01\State=3-A"\HF=-228.3126705\S2=2.01597\S2-1=0.\S2A=2.000
 116\RMSD=2.052e-11\RMSF=1.856e-06\Dipole=0.213626,0.8809723,-0.463955\
 Quadrupole=0.4931862,-0.6031982,0.110012,-0.6360177,0.5644421,0.143485
 8\PG=CS [SG(C2H1),X(H2O2)]\\@


 THE THINKER DIES, BUT HIS THOUGHTS ARE BEYOND THE 
 REACH OF DESTRUCTION.  MEN ARE MORTAL; BUT IDEAS 
 ARE IMMORTAL.
                              -- WALTER LIPPMANN
 Job cpu time:       0 days  0 hours 32 minutes 30.3 seconds.
 File lengths (MBytes):  RWF=     13 Int=      0 D2E=      0 Chk=      3 Scr=      1
 Normal termination of Gaussian 09 at Fri Apr 10 14:18:19 2020.
