 Entering Gaussian System, Link 0=g09
 Input=4.com
 Output=4.log
 Initial command:
 /usr/local/Dist/g09/l1.exe "/scratch/washcoll/sarradondo/Gau-32003.inp" -scrdir="/scratch/washcoll/sarradondo/"
 Entering Link 1 = /usr/local/Dist/g09/l1.exe PID=     32004.
  
 Copyright (c) 1988,1990,1992,1993,1995,1998,2003,2009,2013,
            Gaussian, Inc.  All Rights Reserved.
  
 This is part of the Gaussian(R) 09 program.  It is based on
 the Gaussian(R) 03 system (copyright 2003, Gaussian, Inc.),
 the Gaussian(R) 98 system (copyright 1998, Gaussian, Inc.),
 the Gaussian(R) 94 system (copyright 1995, Gaussian, Inc.),
 the Gaussian 92(TM) system (copyright 1992, Gaussian, Inc.),
 the Gaussian 90(TM) system (copyright 1990, Gaussian, Inc.),
 the Gaussian 88(TM) system (copyright 1988, Gaussian, Inc.),
 the Gaussian 86(TM) system (copyright 1986, Carnegie Mellon
 University), and the Gaussian 82(TM) system (copyright 1983,
 Carnegie Mellon University). Gaussian is a federally registered
 trademark of Gaussian, Inc.
  
 This software contains proprietary and confidential information,
 including trade secrets, belonging to Gaussian, Inc.
  
 This software is provided under written license and may be
 used, copied, transmitted, or stored only in accord with that
 written license.
  
 The following legend is applicable only to US Government
 contracts under FAR:
  
                    RESTRICTED RIGHTS LEGEND
  
 Use, reproduction and disclosure by the US Government is
 subject to restrictions as set forth in subparagraphs (a)
 and (c) of the Commercial Computer Software - Restricted
 Rights clause in FAR 52.227-19.
  
 Gaussian, Inc.
 340 Quinnipiac St., Bldg. 40, Wallingford CT 06492
  
  
 ---------------------------------------------------------------
 Warning -- This program may not be used in any manner that
 competes with the business of Gaussian, Inc. or will provide
 assistance to any competitor of Gaussian, Inc.  The licensee
 of this program is prohibited from giving any competitor of
 Gaussian, Inc. access to this program.  By using this program,
 the user acknowledges that Gaussian, Inc. is engaged in the
 business of creating and licensing software in the field of
 computational chemistry and represents and warrants to the
 licensee that it is not a competitor of Gaussian, Inc. and that
 it will not use this program in any manner prohibited above.
 ---------------------------------------------------------------
  

 Cite this work as:
 Gaussian 09, Revision D.01,
 M. J. Frisch, G. W. Trucks, H. B. Schlegel, G. E. Scuseria, 
 M. A. Robb, J. R. Cheeseman, G. Scalmani, V. Barone, B. Mennucci, 
 G. A. Petersson, H. Nakatsuji, M. Caricato, X. Li, H. P. Hratchian, 
 A. F. Izmaylov, J. Bloino, G. Zheng, J. L. Sonnenberg, M. Hada, 
 M. Ehara, K. Toyota, R. Fukuda, J. Hasegawa, M. Ishida, T. Nakajima, 
 Y. Honda, O. Kitao, H. Nakai, T. Vreven, J. A. Montgomery, Jr., 
 J. E. Peralta, F. Ogliaro, M. Bearpark, J. J. Heyd, E. Brothers, 
 K. N. Kudin, V. N. Staroverov, T. Keith, R. Kobayashi, J. Normand, 
 K. Raghavachari, A. Rendell, J. C. Burant, S. S. Iyengar, J. Tomasi, 
 M. Cossi, N. Rega, J. M. Millam, M. Klene, J. E. Knox, J. B. Cross, 
 V. Bakken, C. Adamo, J. Jaramillo, R. Gomperts, R. E. Stratmann, 
 O. Yazyev, A. J. Austin, R. Cammi, C. Pomelli, J. W. Ochterski, 
 R. L. Martin, K. Morokuma, V. G. Zakrzewski, G. A. Voth, 
 P. Salvador, J. J. Dannenberg, S. Dapprich, A. D. Daniels, 
 O. Farkas, J. B. Foresman, J. V. Ortiz, J. Cioslowski, 
 and D. J. Fox, Gaussian, Inc., Wallingford CT, 2013.
 
 ******************************************
 Gaussian 09:  ES64L-G09RevD.01 24-Apr-2013
                31-Mar-2020 
 ******************************************
 %nproc=4
 Will use up to    4 processors via shared memory.
 %chk=gly-ser14.chk
 Default route:  MaxDisk=700GB
 ----------------------------------------------------
 #N B3LYP/6-311+G(2d,p) OPT(tight,maxcycles=300) FREQ
 ----------------------------------------------------
 1/6=300,7=10,14=-1,18=20,19=15,26=3,38=1/1,3;
 2/9=110,12=2,17=6,18=5,40=1/2;
 3/5=4,6=6,7=112,11=2,16=1,25=1,30=1,71=1,74=-5/1,2,3;
 4//1;
 5/5=2,38=5/2;
 6/7=2,8=2,9=2,10=2,28=1/1;
 7//1,2,3,16;
 1/6=300,7=10,14=-1,18=20,19=15,26=3/3(2);
 2/9=110/2;
 99//99;
 2/9=110/2;
 3/5=4,6=6,7=112,11=2,16=1,25=1,30=1,71=1,74=-5/1,2,3;
 4/5=5,16=3,69=1/1;
 5/5=2,38=5/2;
 7//1,2,3,16;
 1/6=300,7=10,14=-1,18=20,19=15,26=3/3(-5);
 2/9=110/2;
 6/7=2,8=2,9=2,10=2,19=2,28=1/1;
 99/9=1/99;
 --------
 gly-ser1
 --------
 Symbolic Z-matrix:
 Charge = -1 Multiplicity = 1
 N                    -1.365    -2.867     0.223 
 C                     0.084    -2.867     0.223 
 C                     0.608    -1.438     0.223 
 O                     1.5      -1.102     0.998 
 H                     0.445    -3.383    -0.667 
 H                     0.446    -3.385     1.112 
 H                    -1.702    -3.756     0.565 
 H                    -1.701    -2.127     0.822 
 N                     0.048    -0.597    -0.65 
 C                     0.459     0.789    -0.748 
 C                     0.304     1.477     0.601 
 O                     1.25      2.158     0.991 
 O                    -0.754     1.3       1.2 
 C                    -0.39      1.546    -1.758 
 O                    -1.745     1.601    -1.304 
 H                    -0.681    -0.937    -1.26 
 H                     1.504     0.833    -1.054 
 H                    -0.003     2.559    -1.87 
 H                    -0.351     1.034    -2.72 
 H                    -2.335     1.64     -2.06 
 

 GradGradGradGradGradGradGradGradGradGradGradGradGradGradGradGradGradGrad
 Berny optimization.
 Initialization pass.
                           ----------------------------
                           !    Initial Parameters    !
                           ! (Angstroms and Degrees)  !
 --------------------------                            --------------------------
 ! Name  Definition              Value          Derivative Info.                !
 --------------------------------------------------------------------------------
 ! R1    R(1,2)                  1.449          estimate D2E/DX2                !
 ! R2    R(1,7)                  1.0104         estimate D2E/DX2                !
 ! R3    R(1,8)                  1.0096         estimate D2E/DX2                !
 ! R4    R(2,3)                  1.522          estimate D2E/DX2                !
 ! R5    R(2,5)                  1.0903         estimate D2E/DX2                !
 ! R6    R(2,6)                  1.0907         estimate D2E/DX2                !
 ! R7    R(3,4)                  1.2285         estimate D2E/DX2                !
 ! R8    R(3,9)                  1.3353         estimate D2E/DX2                !
 ! R9    R(9,10)                 1.449          estimate D2E/DX2                !
 ! R10   R(9,16)                 1.0095         estimate D2E/DX2                !
 ! R11   R(10,11)                1.5222         estimate D2E/DX2                !
 ! R12   R(10,14)                1.5212         estimate D2E/DX2                !
 ! R13   R(10,17)                1.0898         estimate D2E/DX2                !
 ! R14   R(11,12)                1.2291         estimate D2E/DX2                !
 ! R15   R(11,13)                1.2286         estimate D2E/DX2                !
 ! R16   R(14,15)                1.4301         estimate D2E/DX2                !
 ! R17   R(14,18)                1.0902         estimate D2E/DX2                !
 ! R18   R(14,19)                1.0905         estimate D2E/DX2                !
 ! R19   R(15,20)                0.9598         estimate D2E/DX2                !
 ! A1    A(2,1,7)              109.4838         estimate D2E/DX2                !
 ! A2    A(2,1,8)              109.4391         estimate D2E/DX2                !
 ! A3    A(7,1,8)              109.456          estimate D2E/DX2                !
 ! A4    A(1,2,3)              110.1375         estimate D2E/DX2                !
 ! A5    A(1,2,5)              109.3363         estimate D2E/DX2                !
 ! A6    A(1,2,6)              109.3834         estimate D2E/DX2                !
 ! A7    A(3,2,5)              109.2903         estimate D2E/DX2                !
 ! A8    A(3,2,6)              109.3671         estimate D2E/DX2                !
 ! A9    A(5,2,6)              109.3101         estimate D2E/DX2                !
 ! A10   A(2,3,4)              120.4484         estimate D2E/DX2                !
 ! A11   A(2,3,9)              116.5475         estimate D2E/DX2                !
 ! A12   A(4,3,9)              123.004          estimate D2E/DX2                !
 ! A13   A(3,9,10)             121.851          estimate D2E/DX2                !
 ! A14   A(3,9,16)             119.0632         estimate D2E/DX2                !
 ! A15   A(10,9,16)            119.0857         estimate D2E/DX2                !
 ! A16   A(9,10,11)            110.0907         estimate D2E/DX2                !
 ! A17   A(9,10,14)            111.2607         estimate D2E/DX2                !
 ! A18   A(9,10,17)            109.245          estimate D2E/DX2                !
 ! A19   A(11,10,14)           107.8578         estimate D2E/DX2                !
 ! A20   A(11,10,17)           109.1615         estimate D2E/DX2                !
 ! A21   A(14,10,17)           109.1878         estimate D2E/DX2                !
 ! A22   A(10,11,12)           116.9513         estimate D2E/DX2                !
 ! A23   A(10,11,13)           117.0412         estimate D2E/DX2                !
 ! A24   A(12,11,13)           126.0075         estimate D2E/DX2                !
 ! A25   A(10,14,15)           109.7047         estimate D2E/DX2                !
 ! A26   A(10,14,18)           109.4206         estimate D2E/DX2                !
 ! A27   A(10,14,19)           109.3979         estimate D2E/DX2                !
 ! A28   A(15,14,18)           109.4648         estimate D2E/DX2                !
 ! A29   A(15,14,19)           109.3907         estimate D2E/DX2                !
 ! A30   A(18,14,19)           109.4484         estimate D2E/DX2                !
 ! A31   A(14,15,20)           109.5089         estimate D2E/DX2                !
 ! D1    D(7,1,2,3)           -158.9582         estimate D2E/DX2                !
 ! D2    D(7,1,2,5)             80.9377         estimate D2E/DX2                !
 ! D3    D(7,1,2,6)            -38.7298         estimate D2E/DX2                !
 ! D4    D(8,1,2,3)            -38.9888         estimate D2E/DX2                !
 ! D5    D(8,1,2,5)           -159.0929         estimate D2E/DX2                !
 ! D6    D(8,1,2,6)             81.2396         estimate D2E/DX2                !
 ! D7    D(1,2,3,4)            132.9642         estimate D2E/DX2                !
 ! D8    D(1,2,3,9)            -46.9574         estimate D2E/DX2                !
 ! D9    D(5,2,3,4)           -106.9039         estimate D2E/DX2                !
 ! D10   D(5,2,3,9)             73.1745         estimate D2E/DX2                !
 ! D11   D(6,2,3,4)             12.726          estimate D2E/DX2                !
 ! D12   D(6,2,3,9)           -167.1956         estimate D2E/DX2                !
 ! D13   D(2,3,9,10)          -179.992          estimate D2E/DX2                !
 ! D14   D(2,3,9,16)            -0.1092         estimate D2E/DX2                !
 ! D15   D(4,3,9,10)             0.0886         estimate D2E/DX2                !
 ! D16   D(4,3,9,16)           179.9714         estimate D2E/DX2                !
 ! D17   D(3,9,10,11)          -57.1011         estimate D2E/DX2                !
 ! D18   D(3,9,10,14)         -176.6184         estimate D2E/DX2                !
 ! D19   D(3,9,10,17)           62.7589         estimate D2E/DX2                !
 ! D20   D(16,9,10,11)         123.0161         estimate D2E/DX2                !
 ! D21   D(16,9,10,14)           3.4988         estimate D2E/DX2                !
 ! D22   D(16,9,10,17)        -117.1239         estimate D2E/DX2                !
 ! D23   D(9,10,11,12)         133.0181         estimate D2E/DX2                !
 ! D24   D(9,10,11,13)         -46.9318         estimate D2E/DX2                !
 ! D25   D(14,10,11,12)       -105.4151         estimate D2E/DX2                !
 ! D26   D(14,10,11,13)         74.6349         estimate D2E/DX2                !
 ! D27   D(17,10,11,12)         13.1076         estimate D2E/DX2                !
 ! D28   D(17,10,11,13)       -166.8423         estimate D2E/DX2                !
 ! D29   D(9,10,14,15)          64.6457         estimate D2E/DX2                !
 ! D30   D(9,10,14,18)        -175.25           estimate D2E/DX2                !
 ! D31   D(9,10,14,19)         -55.3536         estimate D2E/DX2                !
 ! D32   D(11,10,14,15)        -56.192          estimate D2E/DX2                !
 ! D33   D(11,10,14,18)         63.9122         estimate D2E/DX2                !
 ! D34   D(11,10,14,19)       -176.1913         estimate D2E/DX2                !
 ! D35   D(17,10,14,15)       -174.6979         estimate D2E/DX2                !
 ! D36   D(17,10,14,18)        -54.5937         estimate D2E/DX2                !
 ! D37   D(17,10,14,19)         65.3028         estimate D2E/DX2                !
 ! D38   D(10,14,15,20)       -150.6797         estimate D2E/DX2                !
 ! D39   D(18,14,15,20)         89.243          estimate D2E/DX2                !
 ! D40   D(19,14,15,20)        -30.6759         estimate D2E/DX2                !
 --------------------------------------------------------------------------------
 Trust Radius=3.00D-01 FncErr=1.00D-07 GrdErr=1.00D-06
 Number of steps in this run=    120 maximum allowed number of steps=    120.
 GradGradGradGradGradGradGradGradGradGradGradGradGradGradGradGradGradGrad

                          Input orientation:                          
 ---------------------------------------------------------------------
 Center     Atomic      Atomic             Coordinates (Angstroms)
 Number     Number       Type             X           Y           Z
 ---------------------------------------------------------------------
      1          7           0       -1.365000   -2.867000    0.223000
      2          6           0        0.084000   -2.867000    0.223000
      3          6           0        0.608000   -1.438000    0.223000
      4          8           0        1.500000   -1.102000    0.998000
      5          1           0        0.445000   -3.383000   -0.667000
      6          1           0        0.446000   -3.385000    1.112000
      7          1           0       -1.702000   -3.756000    0.565000
      8          1           0       -1.701000   -2.127000    0.822000
      9          7           0        0.048000   -0.597000   -0.650000
     10          6           0        0.459000    0.789000   -0.748000
     11          6           0        0.304000    1.477000    0.601000
     12          8           0        1.250000    2.158000    0.991000
     13          8           0       -0.754000    1.300000    1.200000
     14          6           0       -0.390000    1.546000   -1.758000
     15          8           0       -1.745000    1.601000   -1.304000
     16          1           0       -0.681000   -0.937000   -1.260000
     17          1           0        1.504000    0.833000   -1.054000
     18          1           0       -0.003000    2.559000   -1.870000
     19          1           0       -0.351000    1.034000   -2.720000
     20          1           0       -2.335000    1.640000   -2.060000
 ---------------------------------------------------------------------
                    Distance matrix (angstroms):
                    1          2          3          4          5
     1  N    0.000000
     2  C    1.449000   0.000000
     3  C    2.436138   1.522044   0.000000
     4  O    3.453125   2.391842   1.228489   0.000000
     5  H    2.081936   1.090265   2.145156   3.014666   0.000000
     6  H    2.082874   1.090729   2.146479   2.517141   1.779001
     7  H    1.010373   2.024125   3.290317   4.181388   2.503310
     8  H    1.009602   2.023024   2.482942   3.365710   2.898271
     9  N    2.812756   2.432350   1.335294   2.253715   2.814195
    10  C    4.199542   3.801290   2.434044   2.776343   4.172810
    11  C    4.668916   4.365962   2.955085   2.870412   5.024670
    12  O    5.716526   5.215362   3.732721   3.269579   5.839492
    13  O    4.323394   4.361268   3.210330   3.300140   5.182063
    14  C    4.934527   4.860412   3.718148   4.263747   5.116888
    15  O    4.736998   5.063595   4.135681   4.809931   5.481070
    16  H    2.528249   2.551355   2.027760   3.143652   2.757252
    17  H    4.853029   4.163788   2.755174   2.820451   4.364162
    18  H    5.973037   5.816330   4.553019   4.887469   6.079085
    19  H    4.990716   4.905943   3.961277   4.670356   4.935414
    20  H    5.144515   5.601491   4.831917   5.619355   5.907570
                    6          7          8          9         10
     6  H    0.000000
     7  H    2.247388   0.000000
     8  H    2.505249   1.649149   0.000000
     9  N    3.322046   3.810250   2.750761   0.000000
    10  C    4.569688   5.201049   3.953929   1.448972   0.000000
    11  C    4.890841   5.604429   4.130095   2.435572   1.522225
    12  O    5.602313   6.623532   5.205592   3.424574   2.350311
    13  O    4.837041   5.183152   3.575475   2.768450   2.350999
    14  C    5.766330   5.935392   4.676115   2.451929   1.521167
    15  O    5.957997   5.673840   4.291829   2.910974   2.413731
    16  H    3.590156   3.509961   2.605998   1.009525   2.130920
    17  H    4.858235   5.827394   4.749000   2.080397   1.089769
    18  H    6.665213   6.978184   5.664686   3.383982   2.145979
    19  H    5.903134   5.963265   4.935604   2.665382   2.145905
    20  H    6.560958   6.033915   4.785203   3.559629   3.201871
                   11         12         13         14         15
    11  C    0.000000
    12  O    1.229137   0.000000
    13  O    1.228615   2.189945   0.000000
    14  C    2.459935   3.259010   2.990447   0.000000
    15  O    2.800500   3.814092   2.709741   1.430093   0.000000
    16  H    3.203271   4.286582   3.325823   2.549112   2.752358
    17  H    2.143306   2.449932   3.224464   2.142713   3.347884
    18  H    2.714924   3.148989   3.402056   1.090175   2.067047
    19  H    3.413842   4.195009   3.949628   1.090463   2.066345
    20  H    3.751241   4.735942   3.639060   1.970549   0.959769
                   16         17         18         19         20
    16  H    0.000000
    17  H    2.819497   0.000000
    18  H    3.613004   2.432279   0.000000
    19  H    2.474943   2.501396   1.780233   0.000000
    20  H    3.164908   4.049840   2.513739   2.176946   0.000000
 Stoichiometry    C5H9N2O4(1-)
 Framework group  C1[X(C5H9N2O4)]
 Deg. of freedom    54
 Full point group                 C1      NOp   1
 Largest Abelian subgroup         C1      NOp   1
 Largest concise Abelian subgroup C1      NOp   1
                         Standard orientation:                         
 ---------------------------------------------------------------------
 Center     Atomic      Atomic             Coordinates (Angstroms)
 Number     Number       Type             X           Y           Z
 ---------------------------------------------------------------------
      1          7           0       -2.823635    1.129011    0.733352
      2          6           0       -2.837034    0.050958   -0.234751
      3          6           0       -1.432995   -0.507988   -0.416051
      4          8           0       -1.239351   -1.721049   -0.402993
      5          1           0       -3.200534    0.428715   -1.190703
      6          1           0       -3.499499   -0.741700    0.115281
      7          1           0       -3.754097    1.260026    1.104738
      8          1           0       -2.190940    0.897516    1.485286
      9          7           0       -0.452917    0.383240   -0.583888
     10          6           0        0.926133   -0.022099   -0.766762
     11          6           0        1.380682   -0.875320    0.409065
     12          8           0        1.978241   -1.916196    0.143967
     13          8           0        1.115961   -0.461142    1.535064
     14          6           0        1.848937    1.184178   -0.852078
     15          8           0        1.839903    1.887227    0.393235
     16          1           0       -0.679557    1.366995   -0.585109
     17          1           0        1.010933   -0.603551   -1.684542
     18          1           0        2.862796    0.850038   -1.073261
     19          1           0        1.504378    1.848377   -1.645317
     20          1           0        2.010016    2.818732    0.236659
 ---------------------------------------------------------------------
 Rotational constants (GHZ):      1.5776558      0.8194974      0.6634653
 Standard basis: 6-311+G(2d,p) (5D, 7F)
 There are   373 symmetry adapted cartesian basis functions of A   symmetry.
 There are   351 symmetry adapted basis functions of A   symmetry.
   351 basis functions,   534 primitive gaussians,   373 cartesian basis functions
    43 alpha electrons       43 beta electrons
       nuclear repulsion energy       661.1764673276 Hartrees.
 NAtoms=   20 NActive=   20 NUniq=   20 SFac= 1.00D+00 NAtFMM=   60 NAOKFM=F Big=F
 Integral buffers will be    131072 words long.
 Raffenetti 2 integral format.
 Two-electron integral symmetry is turned on.
 One-electron integrals computed using PRISM.
 NBasis=   351 RedAO= T EigKep=  1.16D-05  NBF=   351
 NBsUse=   351 1.00D-06 EigRej= -1.00D+00 NBFU=   351
 ExpMin= 4.38D-02 ExpMax= 8.59D+03 ExpMxC= 1.30D+03 IAcc=2 IRadAn=         4 AccDes= 0.00D+00
 Harris functional with IExCor=  402 and IRadAn=       4 diagonalized for initial guess.
 HarFok:  IExCor=  402 AccDes= 0.00D+00 IRadAn=         4 IDoV= 1 UseB2=F ITyADJ=14
 ICtDFT=  3500011 ScaDFX=  1.000000  1.000000  1.000000  1.000000
 FoFCou: FMM=F IPFlag=           0 FMFlag=      100000 FMFlg1=           0
         NFxFlg=           0 DoJE=T BraDBF=F KetDBF=T FulRan=T
         wScrn=  0.000000 ICntrl=     500 IOpCl=  0 I1Cent=   200000004 NGrid=           0
         NMat0=    1 NMatS0=      1 NMatT0=    0 NMatD0=    1 NMtDS0=    0 NMtDT0=    0
 Petite list used in FoFCou.
 Keep R1 ints in memory in canonical form, NReq=1934765518.
 Requested convergence on RMS density matrix=1.00D-08 within 128 cycles.
 Requested convergence on MAX density matrix=1.00D-06.
 Requested convergence on             energy=1.00D-06.
 No special actions if energy rises.
 EnCoef did     3 forward-backward iterations
 SCF Done:  E(RB3LYP) =  -606.596521426     A.U. after   17 cycles
            NFock= 17  Conv=0.44D-08     -V/T= 2.0028

 **********************************************************************

            Population analysis using the SCF density.

 **********************************************************************

 Orbital symmetries:
       Occupied  (A) (A) (A) (A) (A) (A) (A) (A) (A) (A) (A) (A)
                 (A) (A) (A) (A) (A) (A) (A) (A) (A) (A) (A) (A)
                 (A) (A) (A) (A) (A) (A) (A) (A) (A) (A) (A) (A)
                 (A) (A) (A) (A) (A) (A) (A)
       Virtual   (A) (A) (A) (A) (A) (A) (A) (A) (A) (A) (A) (A)
                 (A) (A) (A) (A) (A) (A) (A) (A) (A) (A) (A) (A)
                 (A) (A) (A) (A) (A) (A) (A) (A) (A) (A) (A) (A)
                 (A) (A) (A) (A) (A) (A) (A) (A) (A) (A) (A) (A)
                 (A) (A) (A) (A) (A) (A) (A) (A) (A) (A) (A) (A)
                 (A) (A) (A) (A) (A) (A) (A) (A) (A) (A) (A) (A)
                 (A) (A) (A) (A) (A) (A) (A) (A) (A) (A) (A) (A)
                 (A) (A) (A) (A) (A) (A) (A) (A) (A) (A) (A) (A)
                 (A) (A) (A) (A) (A) (A) (A) (A) (A) (A) (A) (A)
                 (A) (A) (A) (A) (A) (A) (A) (A) (A) (A) (A) (A)
                 (A) (A) (A) (A) (A) (A) (A) (A) (A) (A) (A) (A)
                 (A) (A) (A) (A) (A) (A) (A) (A) (A) (A) (A) (A)
                 (A) (A) (A) (A) (A) (A) (A) (A) (A) (A) (A) (A)
                 (A) (A) (A) (A) (A) (A) (A) (A) (A) (A) (A) (A)
                 (A) (A) (A) (A) (A) (A) (A) (A) (A) (A) (A) (A)
                 (A) (A) (A) (A) (A) (A) (A) (A) (A) (A) (A) (A)
                 (A) (A) (A) (A) (A) (A) (A) (A) (A) (A) (A) (A)
                 (A) (A) (A) (A) (A) (A) (A) (A) (A) (A) (A) (A)
                 (A) (A) (A) (A) (A) (A) (A) (A) (A) (A) (A) (A)
                 (A) (A) (A) (A) (A) (A) (A) (A) (A) (A) (A) (A)
                 (A) (A) (A) (A) (A) (A) (A) (A) (A) (A) (A) (A)
                 (A) (A) (A) (A) (A) (A) (A) (A) (A) (A) (A) (A)
                 (A) (A) (A) (A) (A) (A) (A) (A) (A) (A) (A) (A)
                 (A) (A) (A) (A) (A) (A) (A) (A) (A) (A) (A) (A)
                 (A) (A) (A) (A) (A) (A) (A) (A) (A) (A) (A) (A)
                 (A) (A) (A) (A) (A) (A) (A) (A)
 The electronic state is 1-A.
 Alpha  occ. eigenvalues --  -18.99953 -18.94690 -18.86063 -18.85851 -14.20125
 Alpha  occ. eigenvalues --  -14.19506 -10.13287 -10.09753 -10.08872 -10.05352
 Alpha  occ. eigenvalues --  -10.05225  -0.90503  -0.89874  -0.84366  -0.79946
 Alpha  occ. eigenvalues --   -0.78104  -0.74692  -0.63028  -0.57857  -0.50414
 Alpha  occ. eigenvalues --   -0.46153  -0.41631  -0.40589  -0.36889  -0.36034
 Alpha  occ. eigenvalues --   -0.34068  -0.32289  -0.31720  -0.29398  -0.28069
 Alpha  occ. eigenvalues --   -0.26583  -0.25115  -0.23245  -0.21869  -0.20274
 Alpha  occ. eigenvalues --   -0.18846  -0.15899  -0.14880  -0.12568  -0.11727
 Alpha  occ. eigenvalues --   -0.05453  -0.04912  -0.03387
 Alpha virt. eigenvalues --    0.08643   0.09460   0.11989   0.12676   0.13265
 Alpha virt. eigenvalues --    0.14403   0.15725   0.15931   0.17467   0.18192
 Alpha virt. eigenvalues --    0.19372   0.19813   0.20186   0.21396   0.21657
 Alpha virt. eigenvalues --    0.22683   0.23429   0.24181   0.24955   0.25232
 Alpha virt. eigenvalues --    0.25969   0.26459   0.27092   0.27878   0.28304
 Alpha virt. eigenvalues --    0.28797   0.29794   0.30100   0.30761   0.31655
 Alpha virt. eigenvalues --    0.32029   0.33061   0.33711   0.34468   0.35003
 Alpha virt. eigenvalues --    0.35917   0.36295   0.37117   0.37750   0.38836
 Alpha virt. eigenvalues --    0.39442   0.40288   0.40805   0.41351   0.41943
 Alpha virt. eigenvalues --    0.43734   0.44209   0.45088   0.45433   0.46953
 Alpha virt. eigenvalues --    0.47858   0.48373   0.48826   0.49634   0.49933
 Alpha virt. eigenvalues --    0.51055   0.51867   0.53034   0.53527   0.55325
 Alpha virt. eigenvalues --    0.55657   0.57319   0.59525   0.60947   0.61342
 Alpha virt. eigenvalues --    0.62196   0.62680   0.65170   0.65690   0.66274
 Alpha virt. eigenvalues --    0.68370   0.70031   0.71200   0.71969   0.72976
 Alpha virt. eigenvalues --    0.75690   0.75983   0.77140   0.78096   0.78968
 Alpha virt. eigenvalues --    0.79470   0.80919   0.81210   0.81876   0.83016
 Alpha virt. eigenvalues --    0.84365   0.86620   0.87446   0.88879   0.89450
 Alpha virt. eigenvalues --    0.90528   0.91764   0.93330   0.94754   0.95373
 Alpha virt. eigenvalues --    0.96061   0.97269   1.00473   1.02973   1.03120
 Alpha virt. eigenvalues --    1.05322   1.08605   1.11027   1.13765   1.15317
 Alpha virt. eigenvalues --    1.17078   1.17914   1.18908   1.21596   1.22399
 Alpha virt. eigenvalues --    1.23089   1.24910   1.25637   1.27022   1.27273
 Alpha virt. eigenvalues --    1.27655   1.29584   1.30597   1.32035   1.33443
 Alpha virt. eigenvalues --    1.34826   1.35213   1.36227   1.37214   1.39643
 Alpha virt. eigenvalues --    1.41562   1.42703   1.44008   1.45006   1.46895
 Alpha virt. eigenvalues --    1.48095   1.48500   1.49474   1.51635   1.53765
 Alpha virt. eigenvalues --    1.55636   1.55876   1.58526   1.60870   1.61225
 Alpha virt. eigenvalues --    1.62659   1.63780   1.65415   1.67763   1.68379
 Alpha virt. eigenvalues --    1.72572   1.75635   1.77611   1.78698   1.81484
 Alpha virt. eigenvalues --    1.81587   1.82563   1.85355   1.86905   1.88075
 Alpha virt. eigenvalues --    1.90605   1.91052   1.92550   1.95980   1.98445
 Alpha virt. eigenvalues --    2.01083   2.02392   2.03376   2.05506   2.06136
 Alpha virt. eigenvalues --    2.07076   2.10293   2.14246   2.14698   2.16036
 Alpha virt. eigenvalues --    2.19004   2.23325   2.25527   2.27924   2.30969
 Alpha virt. eigenvalues --    2.33588   2.35579   2.36539   2.37407   2.39492
 Alpha virt. eigenvalues --    2.44256   2.44733   2.46374   2.47778   2.49152
 Alpha virt. eigenvalues --    2.50140   2.51321   2.56311   2.62288   2.65289
 Alpha virt. eigenvalues --    2.69183   2.69443   2.72856   2.73840   2.74942
 Alpha virt. eigenvalues --    2.76544   2.79072   2.84726   2.86804   2.88334
 Alpha virt. eigenvalues --    2.89747   2.92776   2.94850   2.97155   2.99358
 Alpha virt. eigenvalues --    3.03730   3.09740   3.11973   3.12885   3.15677
 Alpha virt. eigenvalues --    3.18484   3.26457   3.28741   3.40519   3.42639
 Alpha virt. eigenvalues --    3.48608   3.51339   3.51948   3.54736   3.56061
 Alpha virt. eigenvalues --    3.56731   3.59378   3.60589   3.62730   3.63243
 Alpha virt. eigenvalues --    3.65818   3.67629   3.70104   3.70986   3.71971
 Alpha virt. eigenvalues --    3.74012   3.75889   3.77996   3.82410   3.85967
 Alpha virt. eigenvalues --    3.86653   3.87662   3.90873   3.95046   3.99066
 Alpha virt. eigenvalues --    4.06098   4.10376   4.12568   4.17626   4.18247
 Alpha virt. eigenvalues --    4.24500   4.37263   4.37953   4.48616   4.56452
 Alpha virt. eigenvalues --    4.62323   4.91502   5.00130   5.10781   5.16871
 Alpha virt. eigenvalues --    5.18260   5.18574   5.20098   5.23115   5.26367
 Alpha virt. eigenvalues --    5.26753   5.28575   5.31987   5.34063   5.37179
 Alpha virt. eigenvalues --    5.39748   5.40320   5.48706   5.51858   5.59249
 Alpha virt. eigenvalues --    5.62426   5.66593   5.83538   5.95132   6.11093
 Alpha virt. eigenvalues --    6.26377   6.40303   7.01879   7.02584   7.03371
 Alpha virt. eigenvalues --    7.05188   7.10223   7.12980   7.13136   7.15409
 Alpha virt. eigenvalues --    7.18833   7.22930   7.28853   7.30742   7.37106
 Alpha virt. eigenvalues --    7.39924   7.40205   7.46418   7.47273   7.48844
 Alpha virt. eigenvalues --    7.50904   7.62041  24.07515  24.08957  24.14414
 Alpha virt. eigenvalues --   24.31170  24.40217  35.73651  35.82648  50.09722
 Alpha virt. eigenvalues --   50.20373  50.25011  50.33698
          Condensed to atoms (all electrons):
               1          2          3          4          5          6
     1  N    6.751648   0.104462   0.042958   0.012439  -0.055210  -0.088217
     2  C    0.104462   6.461271  -0.648311  -0.032954   0.454237   0.535903
     3  C    0.042958  -0.648311   6.135314   0.501279  -0.092156  -0.105495
     4  O    0.012439  -0.032954   0.501279   8.217276   0.005974  -0.008769
     5  H   -0.055210   0.454237  -0.092156   0.005974   0.648404  -0.059996
     6  H   -0.088217   0.535903  -0.105495  -0.008769  -0.059996   0.634153
     7  H    0.358379  -0.054160   0.025635  -0.001007   0.000061  -0.015421
     8  H    0.404648  -0.002447  -0.045168   0.000376   0.006239   0.002237
     9  N   -0.003469  -0.256115   0.385697  -0.094035   0.004693   0.007827
    10  C   -0.013650   0.109121  -0.624226  -0.068970   0.004213  -0.001307
    11  C    0.016633  -0.192285   0.005367  -0.054225  -0.000012  -0.001870
    12  O    0.000002  -0.014776  -0.036172   0.011021   0.000043   0.000061
    13  O   -0.007057   0.023340   0.059767   0.000803  -0.000054  -0.000247
    14  C    0.005588  -0.180465  -0.108015   0.011669  -0.002382  -0.000881
    15  O   -0.001275  -0.008392   0.027410  -0.001040   0.000059  -0.000020
    16  H    0.001618   0.060239  -0.059142   0.006897  -0.000356   0.000692
    17  H   -0.000213   0.018067   0.020098   0.005019   0.000093  -0.000068
    18  H    0.000012  -0.001817   0.009223   0.000161  -0.000002   0.000000
    19  H   -0.000390   0.006907  -0.008954  -0.000138  -0.000021   0.000005
    20  H    0.000135   0.000280  -0.000626  -0.000015  -0.000006   0.000003
               7          8          9         10         11         12
     1  N    0.358379   0.404648  -0.003469  -0.013650   0.016633   0.000002
     2  C   -0.054160  -0.002447  -0.256115   0.109121  -0.192285  -0.014776
     3  C    0.025635  -0.045168   0.385697  -0.624226   0.005367  -0.036172
     4  O   -0.001007   0.000376  -0.094035  -0.068970  -0.054225   0.011021
     5  H    0.000061   0.006239   0.004693   0.004213  -0.000012   0.000043
     6  H   -0.015421   0.002237   0.007827  -0.001307  -0.001870   0.000061
     7  H    0.524560  -0.039631   0.001336  -0.000337  -0.000467  -0.000006
     8  H   -0.039631   0.420155  -0.003652   0.008527  -0.004726   0.000069
     9  N    0.001336  -0.003652   6.858313  -0.201535   0.007329   0.035860
    10  C   -0.000337   0.008527  -0.201535   9.551642   0.233330  -0.003801
    11  C   -0.000467  -0.004726   0.007329   0.233330   4.752022   0.391255
    12  O   -0.000006   0.000069   0.035860  -0.003801   0.391255   8.348876
    13  O   -0.000030   0.002291  -0.058727  -0.005213   0.411086  -0.109511
    14  C    0.000166  -0.001647   0.182623  -2.859642  -0.143952  -0.009459
    15  O    0.000091   0.000603   0.007649  -0.250612   0.094665  -0.004673
    16  H   -0.000062   0.002589   0.319451  -0.076599  -0.001520  -0.001923
    17  H    0.000021   0.000009  -0.084310   0.456600   0.014678  -0.024529
    18  H    0.000000   0.000001   0.022617  -0.364238  -0.004115   0.009301
    19  H   -0.000004  -0.000037  -0.026433   0.121717   0.021892  -0.001798
    20  H   -0.000001   0.000086  -0.008402   0.052181  -0.037168   0.000493
              13         14         15         16         17         18
     1  N   -0.007057   0.005588  -0.001275   0.001618  -0.000213   0.000012
     2  C    0.023340  -0.180465  -0.008392   0.060239   0.018067  -0.001817
     3  C    0.059767  -0.108015   0.027410  -0.059142   0.020098   0.009223
     4  O    0.000803   0.011669  -0.001040   0.006897   0.005019   0.000161
     5  H   -0.000054  -0.002382   0.000059  -0.000356   0.000093  -0.000002
     6  H   -0.000247  -0.000881  -0.000020   0.000692  -0.000068   0.000000
     7  H   -0.000030   0.000166   0.000091  -0.000062   0.000021   0.000000
     8  H    0.002291  -0.001647   0.000603   0.002589   0.000009   0.000001
     9  N   -0.058727   0.182623   0.007649   0.319451  -0.084310   0.022617
    10  C   -0.005213  -2.859642  -0.250612  -0.076599   0.456600  -0.364238
    11  C    0.411086  -0.143952   0.094665  -0.001520   0.014678  -0.004115
    12  O   -0.109511  -0.009459  -0.004673  -0.001923  -0.024529   0.009301
    13  O    8.331888  -0.002559  -0.050144  -0.002864   0.003325   0.002333
    14  C   -0.002559   8.211371   0.230922   0.021054  -0.138919   0.712279
    15  O   -0.050144   0.230922   8.282275   0.016560   0.010617  -0.045374
    16  H   -0.002864   0.021054   0.016560   0.477383   0.007557   0.000115
    17  H    0.003325  -0.138919   0.010617   0.007557   0.635935  -0.001558
    18  H    0.002333   0.712279  -0.045374   0.000115  -0.001558   0.610530
    19  H   -0.005900   0.241313  -0.048570   0.007527  -0.007570  -0.057768
    20  H    0.009750   0.033810   0.116813  -0.001636  -0.000620  -0.001413
              19         20
     1  N   -0.000390   0.000135
     2  C    0.006907   0.000280
     3  C   -0.008954  -0.000626
     4  O   -0.000138  -0.000015
     5  H   -0.000021  -0.000006
     6  H    0.000005   0.000003
     7  H   -0.000004  -0.000001
     8  H   -0.000037   0.000086
     9  N   -0.026433  -0.008402
    10  C    0.121717   0.052181
    11  C    0.021892  -0.037168
    12  O   -0.001798   0.000493
    13  O   -0.005900   0.009750
    14  C    0.241313   0.033810
    15  O   -0.048570   0.116813
    16  H    0.007527  -0.001636
    17  H   -0.007570  -0.000620
    18  H   -0.057768  -0.001413
    19  H    0.717667  -0.026793
    20  H   -0.026793   0.634055
 Mulliken charges:
               1
     1  N   -0.529040
     2  C   -0.382105
     3  C    0.515516
     4  O   -0.511762
     5  H    0.086181
     6  H    0.101412
     7  H    0.200878
     8  H    0.249478
     9  N   -0.096717
    10  C   -0.067201
    11  C    0.492083
    12  O   -0.590334
    13  O   -0.602276
    14  C   -0.202871
    15  O   -0.377565
    16  H    0.222420
    17  H    0.085768
    18  H    0.109713
    19  H    0.067348
    20  H    0.229073
 Sum of Mulliken charges =  -1.00000
 Mulliken charges with hydrogens summed into heavy atoms:
               1
     1  N   -0.078683
     2  C   -0.194512
     3  C    0.515516
     4  O   -0.511762
     9  N    0.125704
    10  C    0.018567
    11  C    0.492083
    12  O   -0.590334
    13  O   -0.602276
    14  C   -0.025810
    15  O   -0.148492
 Electronic spatial extent (au):  <R**2>=           1847.3450
 Charge=             -1.0000 electrons
 Dipole moment (field-independent basis, Debye):
    X=             -5.8604    Y=              8.6312    Z=             -4.3177  Tot=             11.2910
 Quadrupole moment (field-independent basis, Debye-Ang):
   XX=            -77.2190   YY=            -84.4752   ZZ=            -74.6043
   XY=             11.0115   XZ=            -10.1995   YZ=             -0.6870
 Traceless Quadrupole moment (field-independent basis, Debye-Ang):
   XX=              1.5472   YY=             -5.7090   ZZ=              4.1619
   XY=             11.0115   XZ=            -10.1995   YZ=             -0.6870
 Octapole moment (field-independent basis, Debye-Ang**2):
  XXX=            -40.5084  YYY=             52.8364  ZZZ=             -5.5209  XYY=              2.2994
  XXY=             31.5628  XXZ=             -0.0236  XZZ=            -15.2536  YZZ=              6.4090
  YYZ=             -0.2976  XYZ=              1.8097
 Hexadecapole moment (field-independent basis, Debye-Ang**3):
 XXXX=          -1421.9638 YYYY=           -667.6780 ZZZZ=           -334.9262 XXXY=             57.7823
 XXXZ=            -51.0902 YYYX=            100.9095 YYYZ=             -0.6819 ZZZX=            -21.7582
 ZZZY=             18.4650 XXYY=           -417.8449 XXZZ=           -298.4326 YYZZ=           -166.4553
 XXYZ=              6.1047 YYXZ=             -8.2140 ZZXY=             -0.2367
 N-N= 6.611764673276D+02 E-N=-2.760850409737D+03  KE= 6.048813990879D+02
 Calling FoFJK, ICntrl=      2127 FMM=F ISym2X=0 I1Cent= 0 IOpClX= 0 NMat=1 NMatS=1 NMatT=0.
 ***** Axes restored to original set *****
 -------------------------------------------------------------------
 Center     Atomic                   Forces (Hartrees/Bohr)
 Number     Number              X              Y              Z
 -------------------------------------------------------------------
      1        7          -0.014048432   -0.002514478   -0.012184079
      2        6          -0.001273542    0.000088189    0.004835696
      3        6           0.017129299   -0.000986184    0.015084373
      4        8           0.000373970   -0.007308312   -0.004844473
      5        1           0.002705983   -0.003150507   -0.002442512
      6        1           0.011365564    0.003914548   -0.000341220
      7        1          -0.004937299   -0.000269743    0.001608926
      8        1          -0.004224597    0.001817980    0.004638025
      9        7          -0.004740467   -0.003473263   -0.020113724
     10        6          -0.003082941    0.000112301   -0.008126423
     11        6           0.002964894    0.006005451    0.025248299
     12        8           0.034063549    0.025364009   -0.004102661
     13        8          -0.032003408   -0.014171257    0.010685548
     14        6          -0.004340416   -0.006584750    0.001591426
     15        8          -0.005612350   -0.001575730   -0.003611861
     16        1          -0.002992322   -0.000517483    0.004352125
     17        1           0.001964774    0.001487506   -0.000510184
     18        1           0.004334743    0.001293154   -0.000056312
     19        1           0.001236262   -0.001023547   -0.007760062
     20        1           0.001116735    0.001492115   -0.003950904
 -------------------------------------------------------------------
 Cartesian Forces:  Max     0.034063549 RMS     0.009847943

 GradGradGradGradGradGradGradGradGradGradGradGradGradGradGradGradGradGrad
 Berny optimization.
 FormGI is forming the generalized inverse of G from B-inverse, IUseBI=4.
 Internal  Forces:  Max     0.038969047 RMS     0.009775181
 Search for a local minimum.
 Step number   1 out of a maximum of  120
 All quantities printed in internal units (Hartrees-Bohrs-Radians)
 Mixed Optimization -- RFO/linear search
 Second derivative matrix not updated -- first step.
 ITU=  0
     Eigenvalues ---    0.00472   0.00472   0.00474   0.00486   0.01044
     Eigenvalues ---    0.01044   0.01294   0.01331   0.01645   0.02548
     Eigenvalues ---    0.04465   0.04914   0.05253   0.05310   0.05366
     Eigenvalues ---    0.05974   0.06345   0.06656   0.09581   0.11264
     Eigenvalues ---    0.13022   0.13728   0.16000   0.16000   0.16000
     Eigenvalues ---    0.16000   0.16905   0.18246   0.22000   0.22033
     Eigenvalues ---    0.22076   0.25000   0.25000   0.25000   0.25000
     Eigenvalues ---    0.30153   0.30171   0.30254   0.34729   0.34759
     Eigenvalues ---    0.34782   0.34792   0.34839   0.38376   0.38380
     Eigenvalues ---    0.40976   0.45910   0.46039   0.46052   0.55523
     Eigenvalues ---    0.58273   0.91447   0.91666   0.91719
 RFO step:  Lambda=-3.26971898D-02 EMin= 4.71948736D-03
 Linear search not attempted -- first point.
 Iteration  1 RMS(Cart)=  0.15213974 RMS(Int)=  0.00920849
 Iteration  2 RMS(Cart)=  0.01416395 RMS(Int)=  0.00098085
 Iteration  3 RMS(Cart)=  0.00009672 RMS(Int)=  0.00097850
 Iteration  4 RMS(Cart)=  0.00000006 RMS(Int)=  0.00097850
 Variable       Old X    -DE/DX   Delta X   Delta X   Delta X     New X
                                 (Linear)    (Quad)   (Total)
    R1        2.73821   0.02321   0.00000   0.05574   0.05574   2.79395
    R2        1.90933   0.00243   0.00000   0.00494   0.00494   1.91427
    R3        1.90787   0.00549   0.00000   0.01114   0.01114   1.91901
    R4        2.87625   0.00369   0.00000   0.01104   0.01104   2.88729
    R5        2.06030   0.00438   0.00000   0.01151   0.01151   2.07181
    R6        2.06118   0.00163   0.00000   0.00430   0.00430   2.06548
    R7        2.32151  -0.00478   0.00000  -0.00504  -0.00504   2.31647
    R8        2.52334   0.01242   0.00000   0.02019   0.02019   2.54353
    R9        2.73816   0.01141   0.00000   0.02739   0.02739   2.76555
   R10        1.90773  -0.00029   0.00000  -0.00060  -0.00060   1.90713
   R11        2.87659   0.03547   0.00000   0.10612   0.10612   2.98271
   R12        2.87459   0.00779   0.00000   0.02324   0.02324   2.89783
   R13        2.05937   0.00209   0.00000   0.00548   0.00548   2.06484
   R14        2.32273   0.03897   0.00000   0.04114   0.04114   2.36387
   R15        2.32175   0.03481   0.00000   0.03667   0.03667   2.35841
   R16        2.70248   0.00186   0.00000   0.00419   0.00419   2.70668
   R17        2.06013   0.00275   0.00000   0.00722   0.00722   2.06735
   R18        2.06068   0.00737   0.00000   0.01938   0.01938   2.08006
   R19        1.81370   0.00249   0.00000   0.00423   0.00423   1.81793
    A1        1.91085   0.00618   0.00000   0.03219   0.03206   1.94291
    A2        1.91007   0.00267   0.00000   0.01396   0.01382   1.92389
    A3        1.91037  -0.00437   0.00000  -0.02243  -0.02269   1.88767
    A4        1.92226   0.00419   0.00000   0.02052   0.02044   1.94271
    A5        1.90828  -0.00333   0.00000  -0.01556  -0.01535   1.89293
    A6        1.90910   0.01006   0.00000   0.07868   0.07910   1.98820
    A7        1.90748  -0.00023   0.00000  -0.01013  -0.01046   1.89702
    A8        1.90882  -0.00947   0.00000  -0.05529  -0.05647   1.85235
    A9        1.90782  -0.00126   0.00000  -0.01858  -0.01964   1.88818
   A10        2.10222   0.00080   0.00000   0.00283   0.00282   2.10504
   A11        2.03414  -0.01321   0.00000  -0.04674  -0.04674   1.98739
   A12        2.14683   0.01242   0.00000   0.04392   0.04391   2.19074
   A13        2.12670   0.01560   0.00000   0.06176   0.06151   2.18822
   A14        2.07805  -0.00975   0.00000  -0.04096  -0.04120   2.03685
   A15        2.07844  -0.00585   0.00000  -0.02073  -0.02098   2.05746
   A16        1.92145   0.00774   0.00000   0.06715   0.06760   1.98904
   A17        1.94187  -0.01463   0.00000  -0.05674  -0.06069   1.88118
   A18        1.90669   0.00540   0.00000   0.01699   0.01423   1.92092
   A19        1.88247   0.01344   0.00000   0.07610   0.07691   1.95939
   A20        1.90523  -0.00748   0.00000  -0.03999  -0.03870   1.86653
   A21        1.90569  -0.00455   0.00000  -0.06442  -0.06447   1.84122
   A22        2.04118  -0.01485   0.00000  -0.05252  -0.05416   1.98703
   A23        2.04275  -0.00496   0.00000  -0.01750  -0.01914   2.02361
   A24        2.19925   0.01981   0.00000   0.07011   0.06846   2.26771
   A25        1.91471   0.01915   0.00000   0.08185   0.08167   1.99638
   A26        1.90975  -0.00844   0.00000  -0.03880  -0.03971   1.87004
   A27        1.90935  -0.00217   0.00000  -0.00773  -0.00799   1.90137
   A28        1.91052  -0.00153   0.00000   0.01430   0.01455   1.92507
   A29        1.90923  -0.00796   0.00000  -0.03222  -0.03240   1.87683
   A30        1.91024   0.00093   0.00000  -0.01757  -0.01828   1.89195
   A31        1.91129  -0.00594   0.00000  -0.03080  -0.03080   1.88049
    D1       -2.77434   0.00064   0.00000  -0.00893  -0.00952  -2.78386
    D2        1.41263   0.00042   0.00000   0.00063   0.00057   1.41320
    D3       -0.67596  -0.00210   0.00000  -0.01483  -0.01440  -0.69036
    D4       -0.68048   0.00070   0.00000  -0.00816  -0.00861  -0.68909
    D5       -2.77669   0.00048   0.00000   0.00140   0.00148  -2.77522
    D6        1.41790  -0.00204   0.00000  -0.01407  -0.01349   1.40441
    D7        2.32066   0.00471   0.00000   0.05913   0.05872   2.37939
    D8       -0.81956   0.00444   0.00000   0.05345   0.05311  -0.76645
    D9       -1.86582   0.00305   0.00000   0.04629   0.04572  -1.82011
   D10        1.27714   0.00279   0.00000   0.04061   0.04010   1.31724
   D11        0.22211  -0.00433   0.00000  -0.01580  -0.01492   0.20719
   D12       -2.91811  -0.00459   0.00000  -0.02148  -0.02053  -2.93865
   D13       -3.14145  -0.00436   0.00000  -0.07755  -0.07736   3.06437
   D14       -0.00191  -0.00228   0.00000  -0.03523  -0.03531  -0.03722
   D15        0.00155  -0.00462   0.00000  -0.08335  -0.08326  -0.08172
   D16        3.14109  -0.00254   0.00000  -0.04103  -0.04121   3.09988
   D17       -0.99660   0.00228   0.00000  -0.02172  -0.02283  -1.01943
   D18       -3.08257  -0.01022   0.00000  -0.12440  -0.12392   3.07669
   D19        1.09535   0.00120   0.00000  -0.01915  -0.01827   1.07708
   D20        2.14704   0.00020   0.00000  -0.06403  -0.06531   2.08173
   D21        0.06107  -0.01230   0.00000  -0.16671  -0.16640  -0.10533
   D22       -2.04420  -0.00088   0.00000  -0.06146  -0.06075  -2.10494
   D23        2.32160   0.00998   0.00000   0.17017   0.16762   2.48922
   D24       -0.81911   0.00639   0.00000   0.07427   0.07183  -0.74728
   D25       -1.83984   0.00518   0.00000   0.18895   0.19083  -1.64901
   D26        1.30263   0.00159   0.00000   0.09305   0.09504   1.39767
   D27        0.22877   0.00326   0.00000   0.13313   0.13363   0.36240
   D28       -2.91195  -0.00033   0.00000   0.03723   0.03784  -2.87411
   D29        1.12828   0.00197   0.00000  -0.00497  -0.00637   1.12191
   D30       -3.05869   0.00665   0.00000   0.03894   0.03680  -3.02189
   D31       -0.96610   0.00132   0.00000  -0.01088  -0.01248  -0.97858
   D32       -0.98074  -0.00737   0.00000  -0.10241  -0.10196  -1.08270
   D33        1.11548  -0.00269   0.00000  -0.05850  -0.05879   1.05669
   D34       -3.07512  -0.00802   0.00000  -0.10832  -0.10807   3.10000
   D35       -3.04905  -0.00358   0.00000  -0.06225  -0.06036  -3.10942
   D36       -0.95284   0.00110   0.00000  -0.01834  -0.01719  -0.97003
   D37        1.13975  -0.00422   0.00000  -0.06816  -0.06647   1.07328
   D38       -2.62986  -0.00207   0.00000  -0.02156  -0.02054  -2.65040
   D39        1.55758  -0.00256   0.00000  -0.03317  -0.03400   1.52359
   D40       -0.53540   0.00210   0.00000  -0.00073  -0.00092  -0.53631
         Item               Value     Threshold  Converged?
 Maximum Force            0.038969     0.000015     NO 
 RMS     Force            0.009775     0.000010     NO 
 Maximum Displacement     0.545970     0.000060     NO 
 RMS     Displacement     0.152052     0.000040     NO 
 Predicted change in Energy=-2.106717D-02
 GradGradGradGradGradGradGradGradGradGradGradGradGradGradGradGradGradGrad

                          Input orientation:                          
 ---------------------------------------------------------------------
 Center     Atomic      Atomic             Coordinates (Angstroms)
 Number     Number       Type             X           Y           Z
 ---------------------------------------------------------------------
      1          7           0       -1.424584   -2.788892    0.214645
      2          6           0        0.050010   -2.882051    0.161327
      3          6           0        0.696064   -1.498529    0.215328
      4          8           0        1.674865   -1.293956    0.924372
      5          1           0        0.333403   -3.365616   -0.780932
      6          1           0        0.487871   -3.453979    0.983420
      7          1           0       -1.838437   -3.664457    0.511720
      8          1           0       -1.707348   -2.066720    0.870194
      9          7           0        0.095494   -0.585915   -0.570867
     10          6           0        0.446809    0.832939   -0.642732
     11          6           0        0.339828    1.590579    0.737784
     12          8           0        1.234211    2.446915    0.915377
     13          8           0       -0.665696    1.327379    1.428577
     14          6           0       -0.424592    1.476817   -1.727906
     15          8           0       -1.827906    1.469058   -1.441256
     16          1           0       -0.681050   -0.908727   -1.128789
     17          1           0        1.476672    0.946956   -0.989584
     18          1           0       -0.069787    2.503274   -1.859517
     19          1           0       -0.276354    0.933964   -2.673907
     20          1           0       -2.298475    1.458960   -2.280254
 ---------------------------------------------------------------------
                    Distance matrix (angstroms):
                    1          2          3          4          5
     1  N    0.000000
     2  C    1.478496   0.000000
     3  C    2.482375   1.527886   0.000000
     4  O    3.513564   2.396756   1.225824   0.000000
     5  H    2.101024   1.096356   2.147108   2.999893   0.000000
     6  H    2.165835   1.093005   2.111183   2.465389   1.773304
     7  H    1.012987   2.073926   3.347057   4.258268   2.545023
     8  H    1.015496   2.062902   2.555011   3.469793   2.928824
     9  N    2.789404   2.410481   1.345976   2.287241   2.797760
    10  C    4.165917   3.821664   2.496826   2.913351   4.202359
    11  C    4.750431   4.518929   3.153165   3.183972   5.183667
    12  O    5.913873   5.510790   4.043043   3.766745   6.121636
    13  O    4.358122   4.453926   3.363349   3.550189   5.282454
    14  C    4.792678   4.774325   3.726219   4.372582   4.992041
    15  O    4.586373   5.002699   4.233352   5.049737   5.336793
    16  H    2.427484   2.468371   2.012699   3.148682   2.680750
    17  H    4.880985   4.245145   2.835764   2.953674   4.466416
    18  H    5.843342   5.753250   4.572301   5.021235   5.980783
    19  H    4.849931   4.765191   3.900039   4.660310   4.737251
    20  H    5.003245   5.506458   4.893050   5.799621   5.696602
                    6          7          8          9         10
     6  H    0.000000
     7  H    2.382963   0.000000
     8  H    2.599287   1.642697   0.000000
     9  N    3.285659   3.793350   2.742203   0.000000
    10  C    4.585163   5.175102   3.916294   1.463467   0.000000
    11  C    5.052704   5.693096   4.193363   2.551351   1.578381
    12  O    5.948294   6.852224   5.387737   3.564219   2.377524
    13  O    4.938650   5.209066   3.593986   2.870170   2.402593
    14  C    5.700581   5.783389   4.577362   2.421589   1.533467
    15  O    5.956356   5.492468   4.225998   2.946177   2.493314
    16  H    3.508006   3.409525   2.527878   1.009209   2.131130
    17  H    4.923281   5.874435   4.762247   2.105390   1.092669
    18  H    6.624359   6.840453   5.569360   3.351272   2.130130
    19  H    5.763170   5.808081   4.859270   2.621275   2.158436
    20  H    6.523210   5.852876   4.764995   3.582542   3.257294
                   11         12         13         14         15
    11  C    0.000000
    12  O    1.250908   0.000000
    13  O    1.248017   2.264151   0.000000
    14  C    2.583971   3.267975   3.169202   0.000000
    15  O    3.076045   3.985785   3.099475   1.432312   0.000000
    16  H    3.282196   4.371175   3.397134   2.472960   2.658341
    17  H    2.165748   2.436707   3.252993   2.107291   3.375919
    18  H    2.783301   3.066533   3.542512   1.093993   2.082192
    19  H    3.528521   4.177773   4.139654   1.100719   2.052576
    20  H    4.010800   4.864975   4.054468   1.953675   0.962006
                   16         17         18         19         20
    16  H    0.000000
    17  H    2.849333   0.000000
    18  H    3.542507   2.360179   0.000000
    19  H    2.438582   2.431092   1.780066   0.000000
    20  H    3.089964   4.022401   2.496930   2.125925   0.000000
 Stoichiometry    C5H9N2O4(1-)
 Framework group  C1[X(C5H9N2O4)]
 Deg. of freedom    54
 Full point group                 C1      NOp   1
 Largest Abelian subgroup         C1      NOp   1
 Largest concise Abelian subgroup C1      NOp   1
                         Standard orientation:                         
 ---------------------------------------------------------------------
 Center     Atomic      Atomic             Coordinates (Angstroms)
 Number     Number       Type             X           Y           Z
 ---------------------------------------------------------------------
      1          7           0       -2.773086    1.088620    0.836465
      2          6           0       -2.853678    0.032442   -0.195011
      3          6           0       -1.485744   -0.597440   -0.452775
      4          8           0       -1.368714   -1.812801   -0.561615
      5          1           0       -3.213730    0.484100   -1.126872
      6          1           0       -3.523073   -0.791339    0.065675
      7          1           0       -3.680523    1.271771    1.247749
      8          1           0       -2.140214    0.806788    1.578946
      9          7           0       -0.483464    0.296121   -0.545690
     10          6           0        0.934352   -0.033675   -0.696581
     11          6           0        1.511708   -0.929132    0.467937
     12          8           0        2.341951   -1.782963    0.085261
     13          8           0        1.160117   -0.615378    1.623570
     14          6           0        1.706756    1.281459   -0.855751
     15          8           0        1.658094    2.138326    0.290952
     16          1           0       -0.736124    1.270361   -0.471371
     17          1           0        1.094714   -0.581015   -1.628583
     18          1           0        2.742838    1.020542   -1.090863
     19          1           0        1.287891    1.841154   -1.705972
     20          1           0        1.752117    3.045054   -0.016393
 ---------------------------------------------------------------------
 Rotational constants (GHZ):      1.4516847      0.7879239      0.6318402
 Standard basis: 6-311+G(2d,p) (5D, 7F)
 There are   373 symmetry adapted cartesian basis functions of A   symmetry.
 There are   351 symmetry adapted basis functions of A   symmetry.
   351 basis functions,   534 primitive gaussians,   373 cartesian basis functions
    43 alpha electrons       43 beta electrons
       nuclear repulsion energy       646.5180143508 Hartrees.
 NAtoms=   20 NActive=   20 NUniq=   20 SFac= 1.00D+00 NAtFMM=   60 NAOKFM=F Big=F
 Integral buffers will be    131072 words long.
 Raffenetti 2 integral format.
 Two-electron integral symmetry is turned on.
 One-electron integrals computed using PRISM.
 NBasis=   351 RedAO= T EigKep=  1.36D-05  NBF=   351
 NBsUse=   351 1.00D-06 EigRej= -1.00D+00 NBFU=   351
 Initial guess from the checkpoint file:  "gly-ser14.chk"
 B after Tr=     0.000000    0.000000    0.000000
         Rot=    0.999704   -0.007252   -0.008702   -0.021551 Ang=  -2.79 deg.
 ExpMin= 4.38D-02 ExpMax= 8.59D+03 ExpMxC= 1.30D+03 IAcc=2 IRadAn=         4 AccDes= 0.00D+00
 Harris functional with IExCor=  402 and IRadAn=       4 diagonalized for initial guess.
 HarFok:  IExCor=  402 AccDes= 0.00D+00 IRadAn=         4 IDoV= 1 UseB2=F ITyADJ=14
 ICtDFT=  3500011 ScaDFX=  1.000000  1.000000  1.000000  1.000000
 FoFCou: FMM=F IPFlag=           0 FMFlag=      100000 FMFlg1=           0
         NFxFlg=           0 DoJE=T BraDBF=F KetDBF=T FulRan=T
         wScrn=  0.000000 ICntrl=     500 IOpCl=  0 I1Cent=   200000004 NGrid=           0
         NMat0=    1 NMatS0=      1 NMatT0=    0 NMatD0=    1 NMtDS0=    0 NMtDT0=    0
 Petite list used in FoFCou.
 Keep R1 ints in memory in canonical form, NReq=1934765518.
 Requested convergence on RMS density matrix=1.00D-08 within 128 cycles.
 Requested convergence on MAX density matrix=1.00D-06.
 Requested convergence on             energy=1.00D-06.
 No special actions if energy rises.
 SCF Done:  E(RB3LYP) =  -606.613507256     A.U. after   13 cycles
            NFock= 13  Conv=0.55D-08     -V/T= 2.0036
 Calling FoFJK, ICntrl=      2127 FMM=F ISym2X=0 I1Cent= 0 IOpClX= 0 NMat=1 NMatS=1 NMatT=0.
 ***** Axes restored to original set *****
 -------------------------------------------------------------------
 Center     Atomic                   Forces (Hartrees/Bohr)
 Number     Number              X              Y              Z
 -------------------------------------------------------------------
      1        7           0.001715014    0.000341273   -0.004331657
      2        6          -0.005805004   -0.001934497    0.002692082
      3        6           0.002631105    0.002466475    0.002155256
      4        8          -0.000396984   -0.001134673   -0.004249739
      5        1           0.000435246   -0.001244442    0.000537809
      6        1           0.000578640    0.000430022    0.000433213
      7        1           0.000313797   -0.000579450    0.000306015
      8        1           0.000523648   -0.000038703    0.001314159
      9        7           0.004447713    0.002061775   -0.004740695
     10        6          -0.006669109   -0.004379932   -0.002573763
     11        6          -0.008778328    0.010456978    0.003256260
     12        8           0.000387917   -0.001065350   -0.002840638
     13        8           0.004624138   -0.005343080    0.000454759
     14        6           0.005862398    0.001286471   -0.002267826
     15        8          -0.001354579   -0.003235335    0.003037531
     16        1          -0.004052214    0.001093520    0.004807694
     17        1           0.001059315   -0.001783271    0.001253096
     18        1          -0.000184814    0.001041223    0.000215807
     19        1           0.003597611    0.000514768   -0.000241232
     20        1           0.001064489    0.001046228    0.000781868
 -------------------------------------------------------------------
 Cartesian Forces:  Max     0.010456978 RMS     0.003185366

 GradGradGradGradGradGradGradGradGradGradGradGradGradGradGradGradGradGrad
 Berny optimization.
 Using GEDIIS/GDIIS optimizer.
 FormGI is forming the generalized inverse of G from B-inverse, IUseBI=4.
 Internal  Forces:  Max     0.006541817 RMS     0.001959229
 Search for a local minimum.
 Step number   2 out of a maximum of  120
 All quantities printed in internal units (Hartrees-Bohrs-Radians)
 Mixed Optimization -- RFO/linear search
 Update second derivatives using D2CorX and points    1    2
 DE= -1.70D-02 DEPred=-2.11D-02 R= 8.06D-01
 TightC=F SS=  1.41D+00  RLast= 5.43D-01 DXNew= 5.0454D-01 1.6299D+00
 Trust test= 8.06D-01 RLast= 5.43D-01 DXMaxT set to 5.05D-01
 ITU=  1  0
 Use linear search instead of GDIIS.
     Eigenvalues ---    0.00470   0.00478   0.00486   0.00592   0.01044
     Eigenvalues ---    0.01052   0.01294   0.01360   0.01625   0.02563
     Eigenvalues ---    0.04249   0.04549   0.04766   0.05186   0.05629
     Eigenvalues ---    0.06083   0.06292   0.06576   0.09855   0.11678
     Eigenvalues ---    0.13079   0.14148   0.15964   0.15993   0.16000
     Eigenvalues ---    0.16081   0.17298   0.19363   0.21607   0.21994
     Eigenvalues ---    0.23415   0.24247   0.25000   0.25000   0.25419
     Eigenvalues ---    0.29194   0.30186   0.31160   0.34712   0.34737
     Eigenvalues ---    0.34777   0.34796   0.34837   0.38378   0.38974
     Eigenvalues ---    0.40974   0.45900   0.46011   0.46052   0.55549
     Eigenvalues ---    0.58171   0.90347   0.91591   0.92055
 RFO step:  Lambda=-1.00015903D-02 EMin= 4.70044289D-03
 Quartic linear search produced a step of  0.13382.
 Iteration  1 RMS(Cart)=  0.10803754 RMS(Int)=  0.02466421
 Iteration  2 RMS(Cart)=  0.02832228 RMS(Int)=  0.00307547
 Iteration  3 RMS(Cart)=  0.00164704 RMS(Int)=  0.00254457
 Iteration  4 RMS(Cart)=  0.00000465 RMS(Int)=  0.00254457
 Iteration  5 RMS(Cart)=  0.00000004 RMS(Int)=  0.00254457
 Variable       Old X    -DE/DX   Delta X   Delta X   Delta X     New X
                                 (Linear)    (Quad)   (Total)
    R1        2.79395  -0.00266   0.00746  -0.00935  -0.00189   2.79206
    R2        1.91427   0.00046   0.00066   0.00086   0.00152   1.91579
    R3        1.91901   0.00067   0.00149   0.00109   0.00258   1.92159
    R4        2.88729   0.00366   0.00148   0.01210   0.01357   2.90086
    R5        2.07181   0.00020   0.00154   0.00015   0.00169   2.07351
    R6        2.06548   0.00033   0.00058   0.00083   0.00141   2.06689
    R7        2.31647  -0.00296  -0.00067  -0.00321  -0.00388   2.31259
    R8        2.54353   0.00048   0.00270   0.00007   0.00277   2.54629
    R9        2.76555  -0.00156   0.00367  -0.00529  -0.00162   2.76393
   R10        1.90713   0.00011  -0.00008   0.00027   0.00019   1.90732
   R11        2.98271   0.00297   0.01420   0.00615   0.02035   3.00306
   R12        2.89783  -0.00591   0.00311  -0.02107  -0.01796   2.87987
   R13        2.06484   0.00041   0.00073   0.00102   0.00176   2.06660
   R14        2.36387  -0.00086   0.00551  -0.00263   0.00288   2.36675
   R15        2.35841  -0.00234   0.00491  -0.00416   0.00075   2.35916
   R16        2.70668   0.00105   0.00056   0.00251   0.00307   2.70975
   R17        2.06735   0.00089   0.00097   0.00238   0.00335   2.07070
   R18        2.08006   0.00044   0.00259   0.00057   0.00316   2.08322
   R19        1.81793  -0.00121   0.00057  -0.00245  -0.00188   1.81604
    A1        1.94291  -0.00084   0.00429  -0.00967  -0.00545   1.93746
    A2        1.92389  -0.00124   0.00185  -0.01161  -0.00984   1.91405
    A3        1.88767   0.00039  -0.00304  -0.00307  -0.00625   1.88143
    A4        1.94271   0.00079   0.00274   0.00416   0.00684   1.94955
    A5        1.89293  -0.00104  -0.00205  -0.00822  -0.01021   1.88272
    A6        1.98820   0.00110   0.01059   0.00922   0.01987   2.00807
    A7        1.89702   0.00037  -0.00140   0.00182   0.00039   1.89741
    A8        1.85235  -0.00095  -0.00756  -0.00220  -0.01002   1.84232
    A9        1.88818  -0.00027  -0.00263  -0.00500  -0.00775   1.88043
   A10        2.10504  -0.00033   0.00038  -0.00147  -0.00109   2.10395
   A11        1.98739   0.00112  -0.00626   0.00634   0.00008   1.98747
   A12        2.19074  -0.00079   0.00588  -0.00488   0.00100   2.19174
   A13        2.18822   0.00123   0.00823   0.00274   0.00936   2.19758
   A14        2.03685  -0.00075  -0.00551  -0.00343  -0.01055   2.02630
   A15        2.05746  -0.00056  -0.00281  -0.00269  -0.00713   2.05033
   A16        1.98904  -0.00054   0.00905  -0.00216   0.00691   1.99596
   A17        1.88118   0.00192  -0.00812   0.01212   0.00348   1.88465
   A18        1.92092   0.00039   0.00190   0.01013   0.01163   1.93255
   A19        1.95939  -0.00138   0.01029  -0.01177  -0.00142   1.95797
   A20        1.86653   0.00086  -0.00518   0.00586   0.00072   1.86724
   A21        1.84122  -0.00134  -0.00863  -0.01505  -0.02369   1.81754
   A22        1.98703  -0.00320  -0.00725  -0.00200  -0.02291   1.96412
   A23        2.02361  -0.00012  -0.00256   0.00934  -0.00687   2.01674
   A24        2.26771   0.00372   0.00916   0.02192   0.01710   2.28481
   A25        1.99638  -0.00654   0.01093  -0.03321  -0.02229   1.97409
   A26        1.87004   0.00164  -0.00531   0.00538  -0.00003   1.87002
   A27        1.90137  -0.00029  -0.00107  -0.00651  -0.00753   1.89384
   A28        1.92507   0.00210   0.00195   0.00931   0.01119   1.93627
   A29        1.87683   0.00396  -0.00434   0.02727   0.02281   1.89964
   A30        1.89195  -0.00074  -0.00245  -0.00156  -0.00423   1.88772
   A31        1.88049  -0.00101  -0.00412  -0.00525  -0.00937   1.87112
    D1       -2.78386   0.00023  -0.00127  -0.00690  -0.00834  -2.79220
    D2        1.41320  -0.00003   0.00008  -0.00643  -0.00640   1.40679
    D3       -0.69036   0.00035  -0.00193  -0.00021  -0.00204  -0.69240
    D4       -0.68909  -0.00064  -0.00115  -0.02476  -0.02600  -0.71509
    D5       -2.77522  -0.00091   0.00020  -0.02429  -0.02406  -2.79928
    D6        1.40441  -0.00053  -0.00181  -0.01806  -0.01969   1.38472
    D7        2.37939   0.00171   0.00786   0.08761   0.09539   2.47478
    D8       -0.76645   0.00167   0.00711   0.08558   0.09262  -0.67383
    D9       -1.82011   0.00114   0.00612   0.08117   0.08720  -1.73291
   D10        1.31724   0.00110   0.00537   0.07914   0.08442   1.40166
   D11        0.20719   0.00051  -0.00200   0.07510   0.07326   0.28045
   D12       -2.93865   0.00047  -0.00275   0.07307   0.07049  -2.86816
   D13        3.06437  -0.00270  -0.01035  -0.09318  -0.10342   2.96095
   D14       -0.03722  -0.00016  -0.00473   0.00935   0.00452  -0.03270
   D15       -0.08172  -0.00275  -0.01114  -0.09531  -0.10636  -0.18807
   D16        3.09988  -0.00021  -0.00552   0.00721   0.00158   3.10146
   D17       -1.01943  -0.00170  -0.00306  -0.08158  -0.08480  -1.10423
   D18        3.07669  -0.00101  -0.01658  -0.07406  -0.09060   2.98609
   D19        1.07708  -0.00068  -0.00244  -0.06814  -0.07045   1.00664
   D20        2.08173  -0.00427  -0.00874  -0.18521  -0.19413   1.88760
   D21       -0.10533  -0.00358  -0.02227  -0.17770  -0.19993  -0.30526
   D22       -2.10494  -0.00325  -0.00813  -0.17177  -0.17978  -2.28472
   D23        2.48922   0.00020   0.02243   0.03499   0.05800   2.54723
   D24       -0.74728   0.00435   0.00961   0.32234   0.33071  -0.41657
   D25       -1.64901   0.00127   0.02554   0.04022   0.06694  -1.58207
   D26        1.39767   0.00542   0.01272   0.32757   0.33965   1.73732
   D27        0.36240  -0.00056   0.01788   0.01937   0.03822   0.40062
   D28       -2.87411   0.00359   0.00506   0.30672   0.31093  -2.56318
   D29        1.12191  -0.00095  -0.00085  -0.06822  -0.06926   1.05265
   D30       -3.02189  -0.00134   0.00492  -0.07414  -0.06949  -3.09138
   D31       -0.97858  -0.00147  -0.00167  -0.07645  -0.07837  -1.05695
   D32       -1.08270  -0.00072  -0.01365  -0.06623  -0.07978  -1.16248
   D33        1.05669  -0.00112  -0.00787  -0.07215  -0.08001   0.97668
   D34        3.10000  -0.00124  -0.01446  -0.07446  -0.08889   3.01111
   D35       -3.10942  -0.00025  -0.00808  -0.05833  -0.06617   3.10760
   D36       -0.97003  -0.00065  -0.00230  -0.06425  -0.06640  -1.03643
   D37        1.07328  -0.00078  -0.00889  -0.06656  -0.07528   0.99800
   D38       -2.65040  -0.00031  -0.00275  -0.02747  -0.03003  -2.68043
   D39        1.52359   0.00057  -0.00455  -0.01815  -0.02265   1.50093
   D40       -0.53631  -0.00204  -0.00012  -0.03745  -0.03781  -0.57412
         Item               Value     Threshold  Converged?
 Maximum Force            0.006542     0.000015     NO 
 RMS     Force            0.001959     0.000010     NO 
 Maximum Displacement     0.499395     0.000060     NO 
 RMS     Displacement     0.118551     0.000040     NO 
 Predicted change in Energy=-7.272322D-03
 GradGradGradGradGradGradGradGradGradGradGradGradGradGradGradGradGradGrad

                          Input orientation:                          
 ---------------------------------------------------------------------
 Center     Atomic      Atomic             Coordinates (Angstroms)
 Number     Number       Type             X           Y           Z
 ---------------------------------------------------------------------
      1          7           0       -1.442493   -2.717514    0.254346
      2          6           0        0.023995   -2.874993    0.167096
      3          6           0        0.739688   -1.517374    0.134042
      4          8           0        1.798959   -1.358100    0.725806
      5          1           0        0.250071   -3.414819   -0.761043
      6          1           0        0.480512   -3.427223    0.993486
      7          1           0       -1.879177   -3.565062    0.598933
      8          1           0       -1.668124   -1.966355    0.901540
      9          7           0        0.098906   -0.580636   -0.592260
     10          6           0        0.422884    0.845120   -0.630792
     11          6           0        0.245329    1.595434    0.758777
     12          8           0        1.088189    2.507110    0.923151
     13          8           0       -0.550037    1.063110    1.560378
     14          6           0       -0.402889    1.485435   -1.740097
     15          8           0       -1.816256    1.352931   -1.537565
     16          1           0       -0.749842   -0.877856   -1.050512
     17          1           0        1.458664    0.998266   -0.946486
     18          1           0       -0.111851    2.540596   -1.791427
     19          1           0       -0.133999    1.007955   -2.696643
     20          1           0       -2.231530    1.381977   -2.403729
 ---------------------------------------------------------------------
                    Distance matrix (angstroms):
                    1          2          3          4          5
     1  N    0.000000
     2  C    1.477497   0.000000
     3  C    2.493335   1.535069   0.000000
     4  O    3.546448   2.400754   1.223768   0.000000
     5  H    2.093328   1.097253   2.154344   2.973191   0.000000
     6  H    2.178982   1.093749   2.110294   2.468041   1.769641
     7  H    1.013791   2.069962   3.356725   4.291325   2.530969
     8  H    1.016862   2.056282   2.566748   3.524418   2.922619
     9  N    2.767472   2.417914   1.347440   2.287341   2.843226
    10  C    4.117700   3.825569   2.503340   2.930550   4.265432
    11  C    4.658831   4.514841   3.213138   3.337397   5.235695
    12  O    5.843658   5.538155   4.115898   3.934970   6.213549
    13  O    4.098209   4.216563   3.218186   3.475133   5.106958
    14  C    4.766902   4.778383   3.719508   4.360563   5.039582
    15  O    4.463089   4.916068   4.191153   5.053940   5.253963
    16  H    2.359398   2.463726   2.007697   3.143617   2.742225
    17  H    4.864743   4.277905   2.830708   2.909437   4.579345
    18  H    5.796853   5.760457   4.571615   5.018714   6.054721
    19  H    4.929463   4.827343   3.892736   4.587777   4.843034
    20  H    4.949118   5.460616   4.865661   5.791965   5.644999
                    6          7          8          9         10
     6  H    0.000000
     7  H    2.396415   0.000000
     8  H    2.599852   1.640725   0.000000
     9  N    3.280743   3.773401   2.697045   0.000000
    10  C    4.571052   5.124589   3.824232   1.462609   0.000000
    11  C    5.033635   5.582992   4.045741   2.565545   1.589151
    12  O    5.965779   6.766214   5.254485   3.579011   2.370565
    13  O    4.641820   4.910293   3.295732   2.785117   2.407347
    14  C    5.690965   5.758299   4.527021   2.416190   1.523962
    15  O    5.876328   5.362391   4.121751   2.880994   2.468573
    16  H    3.491557   3.349200   2.416315   1.009310   2.126052
    17  H    4.930033   5.861183   4.688388   2.113610   1.093598
    18  H    6.612223   6.790900   5.476008   3.350299   2.123124
    19  H    5.802196   5.900759   4.913958   2.646940   2.145780
    20  H    6.482642   5.797701   4.738519   3.544602   3.236887
                   11         12         13         14         15
    11  C    0.000000
    12  O    1.252431   0.000000
    13  O    1.248414   2.274857   0.000000
    14  C    2.583923   3.218698   3.330638   0.000000
    15  O    3.095500   3.977819   3.359249   1.433939   0.000000
    16  H    3.221965   4.328013   3.259451   2.486171   2.520093
    17  H    2.176400   2.430927   3.213013   2.081473   3.346679
    18  H    2.743073   2.968190   3.689115   1.095766   2.092842
    19  H    3.525472   4.104158   4.277658   1.102393   2.071825
    20  H    4.022666   4.832658   4.317783   1.948086   0.961009
                   16         17         18         19         20
    16  H    0.000000
    17  H    2.899681   0.000000
    18  H    3.555531   2.357801   0.000000
    19  H    2.577847   2.366372   1.780139   0.000000
    20  H    3.022159   3.986016   2.492057   2.150658   0.000000
 Stoichiometry    C5H9N2O4(1-)
 Framework group  C1[X(C5H9N2O4)]
 Deg. of freedom    54
 Full point group                 C1      NOp   1
 Largest Abelian subgroup         C1      NOp   1
 Largest concise Abelian subgroup C1      NOp   1
                         Standard orientation:                         
 ---------------------------------------------------------------------
 Center     Atomic      Atomic             Coordinates (Angstroms)
 Number     Number       Type             X           Y           Z
 ---------------------------------------------------------------------
      1          7           0       -2.675180    1.063229    0.922417
      2          6           0       -2.823403    0.068637   -0.160087
      3          6           0       -1.475354   -0.556922   -0.544638
      4          8           0       -1.399153   -1.745102   -0.827532
      5          1           0       -3.235216    0.584044   -1.036859
      6          1           0       -3.482081   -0.773275    0.071460
      7          1           0       -3.559981    1.226564    1.389558
      8          1           0       -2.016458    0.718443    1.616114
      9          7           0       -0.448475    0.315489   -0.540993
     10          6           0        0.968843   -0.027301   -0.654699
     11          6           0        1.527604   -0.910793    0.542226
     12          8           0        2.407038   -1.721409    0.170632
     13          8           0        0.895192   -0.825623    1.615231
     14          6           0        1.753501    1.267417   -0.829280
     15          8           0        1.598821    2.172106    0.272442
     16          1           0       -0.679738    1.272543   -0.319017
     17          1           0        1.160047   -0.582018   -1.577567
     18          1           0        2.805328    0.991853   -0.965027
     19          1           0        1.407154    1.765095   -1.749949
     20          1           0        1.744188    3.059722   -0.066002
 ---------------------------------------------------------------------
 Rotational constants (GHZ):      1.4281976      0.7941950      0.6445531
 Standard basis: 6-311+G(2d,p) (5D, 7F)
 There are   373 symmetry adapted cartesian basis functions of A   symmetry.
 There are   351 symmetry adapted basis functions of A   symmetry.
   351 basis functions,   534 primitive gaussians,   373 cartesian basis functions
    43 alpha electrons       43 beta electrons
       nuclear repulsion energy       647.1023991483 Hartrees.
 NAtoms=   20 NActive=   20 NUniq=   20 SFac= 1.00D+00 NAtFMM=   60 NAOKFM=F Big=F
 Integral buffers will be    131072 words long.
 Raffenetti 2 integral format.
 Two-electron integral symmetry is turned on.
 One-electron integrals computed using PRISM.
 NBasis=   351 RedAO= T EigKep=  1.34D-05  NBF=   351
 NBsUse=   351 1.00D-06 EigRej= -1.00D+00 NBFU=   351
 Initial guess from the checkpoint file:  "gly-ser14.chk"
 B after Tr=     0.000000    0.000000    0.000000
         Rot=    0.999791   -0.017823    0.009289    0.003626 Ang=  -2.34 deg.
 ExpMin= 4.38D-02 ExpMax= 8.59D+03 ExpMxC= 1.30D+03 IAcc=2 IRadAn=         4 AccDes= 0.00D+00
 Harris functional with IExCor=  402 and IRadAn=       4 diagonalized for initial guess.
 HarFok:  IExCor=  402 AccDes= 0.00D+00 IRadAn=         4 IDoV= 1 UseB2=F ITyADJ=14
 ICtDFT=  3500011 ScaDFX=  1.000000  1.000000  1.000000  1.000000
 FoFCou: FMM=F IPFlag=           0 FMFlag=      100000 FMFlg1=           0
         NFxFlg=           0 DoJE=T BraDBF=F KetDBF=T FulRan=T
         wScrn=  0.000000 ICntrl=     500 IOpCl=  0 I1Cent=   200000004 NGrid=           0
         NMat0=    1 NMatS0=      1 NMatT0=    0 NMatD0=    1 NMtDS0=    0 NMtDT0=    0
 Petite list used in FoFCou.
 Keep R1 ints in memory in canonical form, NReq=1934765518.
 Requested convergence on RMS density matrix=1.00D-08 within 128 cycles.
 Requested convergence on MAX density matrix=1.00D-06.
 Requested convergence on             energy=1.00D-06.
 No special actions if energy rises.
 SCF Done:  E(RB3LYP) =  -606.617622078     A.U. after   13 cycles
            NFock= 13  Conv=0.46D-08     -V/T= 2.0037
 Calling FoFJK, ICntrl=      2127 FMM=F ISym2X=0 I1Cent= 0 IOpClX= 0 NMat=1 NMatS=1 NMatT=0.
 ***** Axes restored to original set *****
 -------------------------------------------------------------------
 Center     Atomic                   Forces (Hartrees/Bohr)
 Number     Number              X              Y              Z
 -------------------------------------------------------------------
      1        7           0.002236842    0.000507872   -0.001025539
      2        6          -0.002744441    0.000075860   -0.000502589
      3        6          -0.000198937    0.001993573    0.000314763
      4        8           0.001189862   -0.001091798   -0.002263199
      5        1           0.001332852   -0.000527793    0.000860929
      6        1          -0.001114030    0.000450425    0.001089079
      7        1           0.000232991   -0.000381462   -0.000201841
      8        1           0.000285182   -0.000028255    0.001105419
      9        7           0.004337072    0.002355214   -0.005670705
     10        6          -0.010013355    0.001313687   -0.006616895
     11        6           0.020580567   -0.021810094    0.013596986
     12        8          -0.012431832    0.007989725   -0.004517716
     13        8          -0.004867881    0.009051813   -0.004000214
     14        6           0.008032798    0.001308467   -0.004338124
     15        8          -0.000134997   -0.002621207    0.000836406
     16        1          -0.004245615    0.002520322    0.005212916
     17        1           0.000709363   -0.003301405    0.004955687
     18        1          -0.001644999    0.000129862    0.000486914
     19        1          -0.000592836    0.001038821    0.000128914
     20        1          -0.000948606    0.001026374    0.000548808
 -------------------------------------------------------------------
[...]
 Rotational constants (GHZ):      1.6630807      0.7002744      0.5641464
 Standard basis: 6-311+G(2d,p) (5D, 7F)
 There are   373 symmetry adapted cartesian basis functions of A   symmetry.
 There are   351 symmetry adapted basis functions of A   symmetry.
   351 basis functions,   534 primitive gaussians,   373 cartesian basis functions
    43 alpha electrons       43 beta electrons
       nuclear repulsion energy       643.6120849899 Hartrees.
 NAtoms=   20 NActive=   20 NUniq=   20 SFac= 1.00D+00 NAtFMM=   60 NAOKFM=F Big=F
 Integral buffers will be    131072 words long.
 Raffenetti 1 integral format.
 Two-electron integral symmetry is turned on.
 One-electron integrals computed using PRISM.
 NBasis=   351 RedAO= T EigKep=  1.41D-05  NBF=   351
 NBsUse=   351 1.00D-06 EigRej= -1.00D+00 NBFU=   351
 Initial guess from the checkpoint file:  "gly-ser14.chk"
 B after Tr=     0.000000    0.000000    0.000000
         Rot=    1.000000    0.000000    0.000000    0.000000 Ang=   0.00 deg.
 Keep R1 ints in memory in canonical form, NReq=1934765518.
 Requested convergence on RMS density matrix=1.00D-08 within 128 cycles.
 Requested convergence on MAX density matrix=1.00D-06.
 Requested convergence on             energy=1.00D-06.
 No special actions if energy rises.
 SCF Done:  E(RHF) =  -603.184004721     A.U. after   14 cycles
            NFock= 14  Conv=0.54D-08     -V/T= 2.0013
 ExpMin= 4.38D-02 ExpMax= 8.59D+03 ExpMxC= 1.30D+03 IAcc=3 IRadAn=         5 AccDes= 0.00D+00
 HarFok:  IExCor=  205 AccDes= 0.00D+00 IRadAn=         5 IDoV=-2 UseB2=F ITyADJ=14
 ICtDFT= 12500011 ScaDFX=  1.000000  1.000000  1.000000  1.000000
 Range of M.O.s used for correlation:    12   351
 NBasis=   351 NAE=    43 NBE=    43 NFC=    11 NFV=     0
 NROrb=    340 NOA=    32 NOB=    32 NVA=   308 NVB=   308

 **** Warning!!: The largest alpha MO coefficient is  0.59425081D+02

 Fully direct method using O(OVN) memory.
 JobTyp=1 Pass  1:  I=   1 to  32 NPSUse=  1 ParTrn=F ParDer=F DoDerP=F.
 Spin components of T(2) and E(2):
     alpha-alpha T2 =       0.8013260458D-01 E2=     -0.2660240037D+00
     alpha-beta  T2 =       0.4226680574D+00 E2=     -0.1466356726D+01
     beta-beta   T2 =       0.8013260458D-01 E2=     -0.2660240037D+00
 ANorm=    0.1258146759D+01
 E2 =    -0.1998404733D+01 EUMP2 =    -0.60518240945411D+03

 **********************************************************************

            Population analysis using the SCF density.

 **********************************************************************

 Orbital symmetries:
       Occupied  (A) (A) (A) (A) (A) (A) (A) (A) (A) (A) (A) (A)
                 (A) (A) (A) (A) (A) (A) (A) (A) (A) (A) (A) (A)
                 (A) (A) (A) (A) (A) (A) (A) (A) (A) (A) (A) (A)
                 (A) (A) (A) (A) (A) (A) (A)
       Virtual   (A) (A) (A) (A) (A) (A) (A) (A) (A) (A) (A) (A)
                 (A) (A) (A) (A) (A) (A) (A) (A) (A) (A) (A) (A)
                 (A) (A) (A) (A) (A) (A) (A) (A) (A) (A) (A) (A)
                 (A) (A) (A) (A) (A) (A) (A) (A) (A) (A) (A) (A)
                 (A) (A) (A) (A) (A) (A) (A) (A) (A) (A) (A) (A)
                 (A) (A) (A) (A) (A) (A) (A) (A) (A) (A) (A) (A)
                 (A) (A) (A) (A) (A) (A) (A) (A) (A) (A) (A) (A)
                 (A) (A) (A) (A) (A) (A) (A) (A) (A) (A) (A) (A)
                 (A) (A) (A) (A) (A) (A) (A) (A) (A) (A) (A) (A)
                 (A) (A) (A) (A) (A) (A) (A) (A) (A) (A) (A) (A)
                 (A) (A) (A) (A) (A) (A) (A) (A) (A) (A) (A) (A)
                 (A) (A) (A) (A) (A) (A) (A) (A) (A) (A) (A) (A)
                 (A) (A) (A) (A) (A) (A) (A) (A) (A) (A) (A) (A)
                 (A) (A) (A) (A) (A) (A) (A) (A) (A) (A) (A) (A)
                 (A) (A) (A) (A) (A) (A) (A) (A) (A) (A) (A) (A)
                 (A) (A) (A) (A) (A) (A) (A) (A) (A) (A) (A) (A)
                 (A) (A) (A) (A) (A) (A) (A) (A) (A) (A) (A) (A)
                 (A) (A) (A) (A) (A) (A) (A) (A) (A) (A) (A) (A)
                 (A) (A) (A) (A) (A) (A) (A) (A) (A) (A) (A) (A)
                 (A) (A) (A) (A) (A) (A) (A) (A) (A) (A) (A) (A)
                 (A) (A) (A) (A) (A) (A) (A) (A) (A) (A) (A) (A)
                 (A) (A) (A) (A) (A) (A) (A) (A) (A) (A) (A) (A)
                 (A) (A) (A) (A) (A) (A) (A) (A) (A) (A) (A) (A)
                 (A) (A) (A) (A) (A) (A) (A) (A) (A) (A) (A) (A)
                 (A) (A) (A) (A) (A) (A) (A) (A) (A) (A) (A) (A)
                 (A) (A) (A) (A) (A) (A) (A) (A)
 The electronic state is 1-A.
 Alpha  occ. eigenvalues --  -20.40049 -20.39229 -20.33583 -20.33322 -15.45817
 Alpha  occ. eigenvalues --  -15.44522 -11.22584 -11.17998 -11.16503 -11.13157
 Alpha  occ. eigenvalues --  -11.12287  -1.25224  -1.22236  -1.20016  -1.11956
 Alpha  occ. eigenvalues --   -1.10577  -1.07969  -0.88021  -0.82770  -0.73074
 Alpha  occ. eigenvalues --   -0.64616  -0.61185  -0.56935  -0.55297  -0.54396
 Alpha  occ. eigenvalues --   -0.51711  -0.50794  -0.48532  -0.47738  -0.46317
 Alpha  occ. eigenvalues --   -0.44436  -0.43247  -0.41200  -0.40551  -0.37720
 Alpha  occ. eigenvalues --   -0.35367  -0.31841  -0.30285  -0.29666  -0.25937
 Alpha  occ. eigenvalues --   -0.24988  -0.23875  -0.23633
 Alpha virt. eigenvalues --    0.14638   0.18082   0.18619   0.19086   0.20286
 Alpha virt. eigenvalues --    0.21312   0.22401   0.23752   0.24155   0.24565
 Alpha virt. eigenvalues --    0.25481   0.25939   0.26359   0.28824   0.28964
 Alpha virt. eigenvalues --    0.29685   0.30480   0.31500   0.31982   0.32899
 Alpha virt. eigenvalues --    0.33690   0.35119   0.36268   0.36895   0.37909
 Alpha virt. eigenvalues --    0.38207   0.41161   0.42311   0.42678   0.43235
 Alpha virt. eigenvalues --    0.44437   0.44918   0.45047   0.46502   0.46867
 Alpha virt. eigenvalues --    0.48545   0.48712   0.49389   0.49689   0.50435
 Alpha virt. eigenvalues --    0.51260   0.51542   0.52087   0.52303   0.53397
 Alpha virt. eigenvalues --    0.54279   0.55224   0.55594   0.56143   0.56721
 Alpha virt. eigenvalues --    0.56941   0.57971   0.58809   0.60264   0.60978
 Alpha virt. eigenvalues --    0.61698   0.63495   0.63687   0.66605   0.67707
 Alpha virt. eigenvalues --    0.70725   0.71591   0.72544   0.75524   0.76928
 Alpha virt. eigenvalues --    0.79034   0.81206   0.82528   0.84658   0.84994
 Alpha virt. eigenvalues --    0.87173   0.88738   0.89489   0.91717   0.92701
 Alpha virt. eigenvalues --    0.94396   0.95019   0.95851   0.96761   0.97408
 Alpha virt. eigenvalues --    0.98363   0.99585   1.00111   1.00767   1.03763
 Alpha virt. eigenvalues --    1.04441   1.05436   1.06418   1.07612   1.08766
 Alpha virt. eigenvalues --    1.09222   1.10623   1.10959   1.13689   1.15421
 Alpha virt. eigenvalues --    1.16922   1.18052   1.19373   1.21294   1.23177
 Alpha virt. eigenvalues --    1.23913   1.28119   1.31207   1.32183   1.34157
 Alpha virt. eigenvalues --    1.36734   1.38708   1.39104   1.42726   1.43461
 Alpha virt. eigenvalues --    1.43800   1.44224   1.44949   1.46232   1.48330
 Alpha virt. eigenvalues --    1.50212   1.50955   1.51981   1.53452   1.53900
 Alpha virt. eigenvalues --    1.55132   1.57568   1.58720   1.58875   1.59853
 Alpha virt. eigenvalues --    1.61219   1.63291   1.65702   1.66990   1.68325
 Alpha virt. eigenvalues --    1.68813   1.70320   1.71725   1.74991   1.75659
 Alpha virt. eigenvalues --    1.80142   1.81072   1.82881   1.83655   1.85698
 Alpha virt. eigenvalues --    1.87624   1.89611   1.91721   1.96469   1.96789
 Alpha virt. eigenvalues --    1.98646   2.01052   2.02224   2.03909   2.06348
 Alpha virt. eigenvalues --    2.08420   2.08846   2.11799   2.14004   2.15646
 Alpha virt. eigenvalues --    2.16180   2.17973   2.20575   2.22976   2.23214
 Alpha virt. eigenvalues --    2.24378   2.25393   2.28938   2.29847   2.31815
 Alpha virt. eigenvalues --    2.34542   2.38073   2.39590   2.41145   2.44432
 Alpha virt. eigenvalues --    2.49403   2.50093   2.52314   2.55883   2.58555
 Alpha virt. eigenvalues --    2.60238   2.65634   2.68086   2.71919   2.73265
 Alpha virt. eigenvalues --    2.74849   2.76519   2.78166   2.78812   2.79528
 Alpha virt. eigenvalues --    2.83669   2.85026   2.88622   2.89475   2.94989
 Alpha virt. eigenvalues --    2.96333   3.01107   3.01808   3.03062   3.05978
 Alpha virt. eigenvalues --    3.09327   3.10842   3.16049   3.18782   3.18951
 Alpha virt. eigenvalues --    3.22698   3.26522   3.29201   3.31159   3.33064
 Alpha virt. eigenvalues --    3.36563   3.42465   3.44727   3.46609   3.49004
 Alpha virt. eigenvalues --    3.52467   3.60123   3.64776   3.76119   3.76295
 Alpha virt. eigenvalues --    3.78716   3.85611   3.86864   3.89327   3.91051
 Alpha virt. eigenvalues --    3.92908   3.94505   3.96411   3.97103   4.00317
 Alpha virt. eigenvalues --    4.01364   4.03035   4.05422   4.07753   4.09297
 Alpha virt. eigenvalues --    4.11120   4.14109   4.14532   4.19312   4.21464
 Alpha virt. eigenvalues --    4.23743   4.25475   4.27071   4.31904   4.42458
 Alpha virt. eigenvalues --    4.44111   4.46946   4.49845   4.55777   4.66534
 Alpha virt. eigenvalues --    4.70172   4.72903   4.79142   4.85336   4.87177
 Alpha virt. eigenvalues --    5.01298   5.36871   5.47269   5.54400   5.61139
 Alpha virt. eigenvalues --    5.61792   5.67086   5.67439   5.70773   5.73988
 Alpha virt. eigenvalues --    5.79025   5.80389   5.81913   5.83969   5.85826
 Alpha virt. eigenvalues --    5.87189   5.87996   5.99926   6.02317   6.06110
 Alpha virt. eigenvalues --    6.13859   6.19865   6.27508   6.45697   6.56711
 Alpha virt. eigenvalues --    6.80721   6.87559   7.53972   7.55084   7.58373
 Alpha virt. eigenvalues --    7.58905   7.61142   7.63135   7.64824   7.74939
 Alpha virt. eigenvalues --    7.76194   7.76713   7.78198   7.85578   7.88831
 Alpha virt. eigenvalues --    7.93217   7.93436   7.97440   7.99382   8.00712
 Alpha virt. eigenvalues --    8.07114   8.11722  25.21209  25.22750  25.30966
 Alpha virt. eigenvalues --   25.37496  25.47982  37.15082  37.24218  51.82871
 Alpha virt. eigenvalues --   51.88350  51.89593  51.95952
          Condensed to atoms (all electrons):
               1          2          3          4          5          6
     1  N    6.761876   0.090704   0.135008   0.008420  -0.045148  -0.089379
     2  C    0.090704   5.781839  -0.542332  -0.037341   0.491604   0.554469
     3  C    0.135008  -0.542332   5.834357   0.356853  -0.095234  -0.132446
     4  O    0.008420  -0.037341   0.356853   8.411825   0.001295  -0.003360
     5  H   -0.045148   0.491604  -0.095234   0.001295   0.566979  -0.034013
     6  H   -0.089379   0.554469  -0.132446  -0.003360  -0.034013   0.586071
     7  H    0.393087  -0.077000   0.042801  -0.000470  -0.005532  -0.002349
     8  H    0.409239   0.017883  -0.053958  -0.000130   0.005242  -0.000300
     9  N   -0.022209  -0.066261   0.266402  -0.039935   0.006298   0.016917
    10  C   -0.011063   0.031596  -0.366523   0.044943   0.001825  -0.002794
    11  C   -0.001383  -0.035129   0.091824   0.001225  -0.000780   0.000547
    12  O   -0.000100   0.001607   0.001268   0.000215  -0.000002  -0.000004
    13  O    0.003160  -0.010508   0.004560  -0.000421  -0.000016   0.000148
    14  C    0.002260  -0.059166  -0.061080  -0.054876   0.000561  -0.001278
    15  O    0.000374  -0.000130  -0.000116  -0.000212  -0.000059   0.000030
    16  H   -0.005292   0.001172  -0.017624   0.001645   0.001044   0.000260
    17  H    0.000393  -0.005298   0.036407  -0.000266  -0.000078   0.000145
    18  H    0.000119  -0.002900   0.008863  -0.000460  -0.000005   0.000002
    19  H   -0.000181   0.009579   0.009008  -0.000581  -0.000042   0.000003
    20  H    0.000056  -0.000505   0.000520  -0.000081  -0.000002   0.000000
               7          8          9         10         11         12
     1  N    0.393087   0.409239  -0.022209  -0.011063  -0.001383  -0.000100
     2  C   -0.077000   0.017883  -0.066261   0.031596  -0.035129   0.001607
     3  C    0.042801  -0.053958   0.266402  -0.366523   0.091824   0.001268
     4  O   -0.000470  -0.000130  -0.039935   0.044943   0.001225   0.000215
     5  H   -0.005532   0.005242   0.006298   0.001825  -0.000780  -0.000002
     6  H   -0.002349  -0.000300   0.016917  -0.002794   0.000547  -0.000004
     7  H    0.451878  -0.037532   0.001854   0.001458   0.000199   0.000001
     8  H   -0.037532   0.425156   0.000860  -0.002257  -0.001358  -0.000011
     9  N    0.001854   0.000860   6.790198   0.034534  -0.052085   0.007939
    10  C    0.001458  -0.002257   0.034534   6.487084  -0.215295  -0.051232
    11  C    0.000199  -0.001358  -0.052085  -0.215295   4.957965   0.227488
    12  O    0.000001  -0.000011   0.007939  -0.051232   0.227488   8.602205
    13  O    0.000150   0.000617  -0.012507  -0.106210   0.399846  -0.054457
    14  C    0.000108   0.000030  -0.028176  -0.160890  -0.052366   0.069334
    15  O   -0.000002   0.000002   0.015230   0.011571   0.005633  -0.030891
    16  H    0.000166  -0.001116   0.372235  -0.021182  -0.004444  -0.000754
    17  H   -0.000014  -0.000090  -0.026085   0.349566   0.010727  -0.002513
    18  H    0.000000  -0.000001   0.021614  -0.057135   0.025670  -0.014946
    19  H   -0.000001  -0.000003  -0.011175  -0.094546  -0.005935   0.000504
    20  H    0.000000  -0.000002   0.004133  -0.078589   0.043646   0.032043
              13         14         15         16         17         18
     1  N    0.003160   0.002260   0.000374  -0.005292   0.000393   0.000119
     2  C   -0.010508  -0.059166  -0.000130   0.001172  -0.005298  -0.002900
     3  C    0.004560  -0.061080  -0.000116  -0.017624   0.036407   0.008863
     4  O   -0.000421  -0.054876  -0.000212   0.001645  -0.000266  -0.000460
     5  H   -0.000016   0.000561  -0.000059   0.001044  -0.000078  -0.000005
     6  H    0.000148  -0.001278   0.000030   0.000260   0.000145   0.000002
     7  H    0.000150   0.000108  -0.000002   0.000166  -0.000014   0.000000
     8  H    0.000617   0.000030   0.000002  -0.001116  -0.000090  -0.000001
     9  N   -0.012507  -0.028176   0.015230   0.372235  -0.026085   0.021614
    10  C   -0.106210  -0.160890   0.011571  -0.021182   0.349566  -0.057135
    11  C    0.399846  -0.052366   0.005633  -0.004444   0.010727   0.025670
    12  O   -0.054457   0.069334  -0.030891  -0.000754  -0.002513  -0.014946
    13  O    8.553475   0.005164  -0.003246   0.020097  -0.000743  -0.000178
    14  C    0.005164   5.330901   0.136321  -0.010698  -0.046308   0.416803
    15  O   -0.003246   0.136321   8.198770   0.001165   0.005934  -0.052290
    16  H    0.020097  -0.010698   0.001165   0.327580   0.003573  -0.000182
    17  H   -0.000743  -0.046308   0.005934   0.003573   0.595026  -0.008114
    18  H   -0.000178   0.416803  -0.052290  -0.000182  -0.008114   0.626092
    19  H   -0.000410   0.501122  -0.049468  -0.000142   0.004569  -0.042073
    20  H   -0.001524   0.016069   0.315497   0.000087   0.000883   0.002172
              19         20
     1  N   -0.000181   0.000056
     2  C    0.009579  -0.000505
     3  C    0.009008   0.000520
     4  O   -0.000581  -0.000081
     5  H   -0.000042  -0.000002
     6  H    0.000003   0.000000
     7  H   -0.000001   0.000000
     8  H   -0.000003  -0.000002
     9  N   -0.011175   0.004133
    10  C   -0.094546  -0.078589
    11  C   -0.005935   0.043646
    12  O    0.000504   0.032043
    13  O   -0.000410  -0.001524
    14  C    0.501122   0.016069
    15  O   -0.049468   0.315497
    16  H   -0.000142   0.000087
    17  H    0.004569   0.000883
    18  H   -0.042073   0.002172
    19  H    0.574236   0.004253
    20  H    0.004253   0.342648
 Mulliken charges:
               1
     1  N   -0.629941
     2  C   -0.143883
     3  C    0.481443
     4  O   -0.688289
     5  H    0.106062
     6  H    0.107332
     7  H    0.231201
     8  H    0.237729
     9  N   -0.279781
    10  C    0.205138
    11  C    0.604005
    12  O   -0.787695
    13  O   -0.796995
    14  C   -0.003836
    15  O   -0.554111
    16  H    0.332410
    17  H    0.082283
    18  H    0.076947
    19  H    0.101285
    20  H    0.318695
 Sum of Mulliken charges =  -1.00000
 Mulliken charges with hydrogens summed into heavy atoms:
               1
     1  N   -0.161011
     2  C    0.069512
     3  C    0.481443
     4  O   -0.688289
     9  N    0.052629
    10  C    0.287422
    11  C    0.604005
    12  O   -0.787695
    13  O   -0.796995
    14  C    0.174396
    15  O   -0.235416
 Electronic spatial extent (au):  <R**2>=           2049.4496
 Charge=             -1.0000 electrons
 Dipole moment (field-independent basis, Debye):
    X=             -8.4216    Y=              1.1753    Z=              0.4015  Tot=              8.5127
 Quadrupole moment (field-independent basis, Debye-Ang):
   XX=            -86.7427   YY=            -89.3652   ZZ=            -73.6868
   XY=             16.1283   XZ=             -4.6527   YZ=             -0.0786
 Traceless Quadrupole moment (field-independent basis, Debye-Ang):
   XX=             -3.4778   YY=             -6.1003   ZZ=              9.5781
   XY=             16.1283   XZ=             -4.6527   YZ=             -0.0786
 Octapole moment (field-independent basis, Debye-Ang**2):
  XXX=            -93.4230  YYY=              9.6862  ZZZ=             -5.0062  XYY=            -18.1314
  XXY=             -6.0453  XXZ=             15.6748  XZZ=             -4.1677  YZZ=             -9.2288
  YYZ=              6.9929  XYZ=            -22.1130
 Hexadecapole moment (field-independent basis, Debye-Ang**3):
 XXXX=          -1821.0213 YYYY=           -755.8727 ZZZZ=           -244.6129 XXXY=            120.1383
 XXXZ=            -13.4398 YYYX=             79.4739 YYYZ=              4.9448 ZZZX=            -12.0016
 ZZZY=             -2.5325 XXYY=           -450.9597 XXZZ=           -340.9359 YYZZ=           -168.1721
 XXYZ=            -18.5791 YYXZ=            -21.3611 ZZXY=             -5.3484
 N-N= 6.436120849899D+02 E-N=-2.721395805350D+03  KE= 6.024268934300D+02
 1\1\GINC-NODE12\SP\RMP2-FC\6-311+G(2d,p)\C5H9N2O4(1-)\ROOT\31-Mar-2020
 \0\\#N MP2/6-311+G(2d,p) geom=checkpoint guess=read\\gly-ser1\\-1,1\N,
 0,-1.0893808121,-2.8718833404,0.9266207168\C,0,0.0417143772,-2.9447610
 223,-0.0008085723\C,0,0.5607328898,-1.5817488223,-0.4783250571\O,0,1.6
 572480938,-1.5311272189,-1.0410103153\H,0,-0.2818587253,-3.488815703,-
 0.8929671819\H,0,0.9218479107,-3.4709577655,0.3900061225\H,0,-1.470230
 309,-3.7924742406,1.1118891332\H,0,-0.8120904024,-2.4679970122,1.81565
 61625\N,0,-0.2367991516,-0.5341306022,-0.2473195275\C,0,0.1522457172,0
 .8585637998,-0.436796226\C,0,-0.7844504188,1.7515611599,0.4586487867\O
 ,0,-0.8804608112,2.949410175,0.090009508\O,0,-1.3307079834,1.179420199
 9,1.423483082\C,0,0.1566999277,1.3106551988,-1.9066529658\O,0,-1.11139
 16297,1.7578166245,-2.3691827143\H,0,-1.0491437879,-0.6535770722,0.349
 3334129\H,0,1.1743485724,0.9772846524,-0.0584593107\H,0,0.8986010553,2
 .1125808563,-2.0112065574\H,0,0.4632518297,0.4812849476,-2.54507501\H,
 0,-1.3591763424,2.4368951854,-1.7108434864\\Version=ES64L-G09RevD.01\S
 tate=1-A\HF=-603.1840047\MP2=-605.1824095\RMSD=5.431e-09\PG=C01 [X(C5H
 9N2O4)]\\@


 CHARLIE BROWN.."I CAN'T GET THAT STUPID KITE IN THE
 AIR... I CAN'T... I C A N N O T..."
 LUCY.."OH COME NOW CHARLIE BROWN...THAT'S NO WAY TO TALK...
 THE TROUBLE WITH YOU IS YOU DON'T BELIEVE IN YOURSELF... YOU
 DON'T BELIEVE IN YOUR OWN ABILITIES...  YOU'VE GOT TO SAY TO
 YOURSELF...'I BELIEVE I CAN FLY THIS KITE.'... GO AHEAD SAY
 IT...."
 CHARLIE BROWN.."I BELIEVE THAT I CAN FLY THIS STUPID
 KITE.....I BELIEVE THAT I CAN FLY THIS KITE........
 I  A C T U A L L Y  B E L I E V E  T H A T  I  C A N ******"
 LUCY.."I'LL BET YOU TEN-TO-ONE YOU'RE WRONG......."    SCHULZ
 Job cpu time:       0 days  0 hours  8 minutes 25.2 seconds.
 File lengths (MBytes):  RWF=     46 Int=      0 D2E=      0 Chk=     11 Scr=      1
 Normal termination of Gaussian 09 at Tue Mar 31 17:42:16 2020.
