 Entering Gaussian System, Link 0=g09
 Input=freq.com
 Output=freq.log
 Initial command:
 /usr/local/Dist/g09/l1.exe "/scratch/washcoll/chudson/Gau-23842.inp" -scrdir="/scratch/washcoll/chudson/"
 Entering Link 1 = /usr/local/Dist/g09/l1.exe PID=     23843.
  
 Copyright (c) 1988,1990,1992,1993,1995,1998,2003,2009,2013,
            Gaussian, Inc.  All Rights Reserved.
  
 This is part of the Gaussian(R) 09 program.  It is based on
 the Gaussian(R) 03 system (copyright 2003, Gaussian, Inc.),
 the Gaussian(R) 98 system (copyright 1998, Gaussian, Inc.),
 the Gaussian(R) 94 system (copyright 1995, Gaussian, Inc.),
 the Gaussian 92(TM) system (copyright 1992, Gaussian, Inc.),
 the Gaussian 90(TM) system (copyright 1990, Gaussian, Inc.),
 the Gaussian 88(TM) system (copyright 1988, Gaussian, Inc.),
 the Gaussian 86(TM) system (copyright 1986, Carnegie Mellon
 University), and the Gaussian 82(TM) system (copyright 1983,
 Carnegie Mellon University). Gaussian is a federally registered
 trademark of Gaussian, Inc.
  
 This software contains proprietary and confidential information,
 including trade secrets, belonging to Gaussian, Inc.
  
 This software is provided under written license and may be
 used, copied, transmitted, or stored only in accord with that
 written license.
  
 The following legend is applicable only to US Government
 contracts under FAR:
  
                    RESTRICTED RIGHTS LEGEND
  
 Use, reproduction and disclosure by the US Government is
 subject to restrictions as set forth in subparagraphs (a)
 and (c) of the Commercial Computer Software - Restricted
 Rights clause in FAR 52.227-19.
  
 Gaussian, Inc.
 340 Quinnipiac St., Bldg. 40, Wallingford CT 06492
  
  
 ---------------------------------------------------------------
 Warning -- This program may not be used in any manner that
 competes with the business of Gaussian, Inc. or will provide
 assistance to any competitor of Gaussian, Inc.  The licensee
 of this program is prohibited from giving any competitor of
 Gaussian, Inc. access to this program.  By using this program,
 the user acknowledges that Gaussian, Inc. is engaged in the
 business of creating and licensing software in the field of
 computational chemistry and represents and warrants to the
 licensee that it is not a competitor of Gaussian, Inc. and that
 it will not use this program in any manner prohibited above.
 ---------------------------------------------------------------
  

 Cite this work as:
 Gaussian 09, Revision D.01,
 M. J. Frisch, G. W. Trucks, H. B. Schlegel, G. E. Scuseria, 
 M. A. Robb, J. R. Cheeseman, G. Scalmani, V. Barone, B. Mennucci, 
 G. A. Petersson, H. Nakatsuji, M. Caricato, X. Li, H. P. Hratchian, 
 A. F. Izmaylov, J. Bloino, G. Zheng, J. L. Sonnenberg, M. Hada, 
 M. Ehara, K. Toyota, R. Fukuda, J. Hasegawa, M. Ishida, T. Nakajima, 
 Y. Honda, O. Kitao, H. Nakai, T. Vreven, J. A. Montgomery, Jr., 
 J. E. Peralta, F. Ogliaro, M. Bearpark, J. J. Heyd, E. Brothers, 
 K. N. Kudin, V. N. Staroverov, T. Keith, R. Kobayashi, J. Normand, 
 K. Raghavachari, A. Rendell, J. C. Burant, S. S. Iyengar, J. Tomasi, 
 M. Cossi, N. Rega, J. M. Millam, M. Klene, J. E. Knox, J. B. Cross, 
 V. Bakken, C. Adamo, J. Jaramillo, R. Gomperts, R. E. Stratmann, 
 O. Yazyev, A. J. Austin, R. Cammi, C. Pomelli, J. W. Ochterski, 
 R. L. Martin, K. Morokuma, V. G. Zakrzewski, G. A. Voth, 
 P. Salvador, J. J. Dannenberg, S. Dapprich, A. D. Daniels, 
 O. Farkas, J. B. Foresman, J. V. Ortiz, J. Cioslowski, 
 and D. J. Fox, Gaussian, Inc., Wallingford CT, 2013.
 
 ******************************************
 Gaussian 09:  ES64L-G09RevD.01 24-Apr-2013
                17-Mar-2020 
 ******************************************
 %nproc=4
 Will use up to    4 processors via shared memory.
 %chk=FlatRevAnAboveOxyAwyWater.chk
 Default route:  MaxDisk=700GB
 ----------------------------------------------------------------------
 #N M062X/aug-cc-pvdz freq 5d 7f int(grid=ultrafine, exactbasistransfor
 m) scf(conver=10) GEOM=CHECK GUESS=READ
 ----------------------------------------------------------------------
 1/10=4,29=2,30=1,38=1/1,3;
 2/12=2,40=1/2;
 3/5=16,7=10,8=11,11=2,14=-4,16=1,25=1,30=1,60=1,71=2,74=-55,75=-5,116=-2,140=1/1,2,3;
 4/5=1/1;
 5/5=2,6=10,38=6,98=1/2;
 8/6=4,10=90,11=11/1;
 11/6=1,8=1,9=11,15=111,16=1/1,2,10;
 10/6=1/2;
 6/7=2,8=2,9=2,10=2,18=1,28=1/1;
 7/8=1,10=1,25=1/1,2,3,16;
 1/10=4,30=1/3;
 99//99;
 ------------------------------------
 RTIL FlatRev AnAbove Oxy Awy w/water
 ------------------------------------
 Structure from the checkpoint file:  "FlatRevAnAboveOxyAwyWater.chk"
 Charge =  0 Multiplicity = 1
 Redundant internal coordinates found in file.
 C,0,-2.7622289337,0.4725034445,0.0455333032
 H,0,-3.605528241,1.0442468694,0.4075343042
 C,0,-2.5685348288,-0.872909468,-0.0482153681
 H,0,-3.2142475882,-1.702334966,0.206511465
 C,0,-0.7425814316,0.1305017602,-0.7603345254
 H,0,0.2944836537,0.2642409227,-1.0550176886
 N,0,-1.3047091694,-1.0587361156,-0.5624652074
 N,0,-1.6118340697,1.0747825139,-0.4094250199
 C,0,-1.2795393188,2.4933315116,-0.3209782057
 H,0,-1.5652401328,2.8443112359,0.6740784515
 H,0,-1.8051668895,3.0537032013,-1.099901455
 H,0,-0.1934141484,2.5809511411,-0.4244041409
 C,0,-0.5741481752,-2.329393196,-0.6644675728
 H,0,-1.2557821892,-3.061901782,-1.1105971648
 H,0,0.2686648108,-2.1462515803,-1.3362081765
 C,0,-0.0659200609,-2.7593559656,0.7028830967
 H,0,-0.8938421328,-2.8996010505,1.4083781027
 H,0,0.6146152065,-1.9903252686,1.0821543585
 H,0,0.4788106564,-3.7046213772,0.6034474667
 C,0,2.4405198938,0.5075859809,-0.1665087888
 O,0,2.0345926503,-0.6006235032,-0.5897786177
 O,0,1.6966770947,1.4100904621,0.3376928546
 C,0,3.9275015252,0.8250948421,-0.2512861706
 H,0,4.3360761552,0.8571151154,0.7665864932
 H,0,4.0667173014,1.8196207295,-0.6896396502
 H,0,4.4541530523,0.0660317332,-0.8351393964
 H,0,0.110391028,0.6140413814,2.8769812859
 O,0,-0.2474612371,0.6344489182,1.9860648472
 H,0,0.5181885189,0.9026295096,1.4101611194
 Recover connectivity data from disk.

 GradGradGradGradGradGradGradGradGradGradGradGradGradGradGradGradGradGrad
 Berny optimization.
 Initialization pass.
                           ----------------------------
                           !    Initial Parameters    !
                           ! (Angstroms and Degrees)  !
 --------------------------                            --------------------------
 ! Name  Definition              Value          Derivative Info.                !
 --------------------------------------------------------------------------------
 ! R1    R(1,2)                  1.0812         calculate D2E/DX2 analytically  !
 ! R2    R(1,3)                  1.3625         calculate D2E/DX2 analytically  !
 ! R3    R(1,8)                  1.3759         calculate D2E/DX2 analytically  !
 ! R4    R(3,4)                  1.0816         calculate D2E/DX2 analytically  !
 ! R5    R(3,7)                  1.377          calculate D2E/DX2 analytically  !
 ! R6    R(5,6)                  1.0864         calculate D2E/DX2 analytically  !
 ! R7    R(5,7)                  1.3302         calculate D2E/DX2 analytically  !
 ! R8    R(5,8)                  1.3306         calculate D2E/DX2 analytically  !
 ! R9    R(6,21)                 1.9981         calculate D2E/DX2 analytically  !
 ! R10   R(7,13)                 1.4692         calculate D2E/DX2 analytically  !
 ! R11   R(8,9)                  1.4596         calculate D2E/DX2 analytically  !
 ! R12   R(9,10)                 1.0931         calculate D2E/DX2 analytically  !
 ! R13   R(9,11)                 1.0941         calculate D2E/DX2 analytically  !
 ! R14   R(9,12)                 1.0946         calculate D2E/DX2 analytically  !
 ! R15   R(13,14)                1.0955         calculate D2E/DX2 analytically  !
 ! R16   R(13,15)                1.0932         calculate D2E/DX2 analytically  !
 ! R17   R(13,16)                1.5208         calculate D2E/DX2 analytically  !
 ! R18   R(16,17)                1.0967         calculate D2E/DX2 analytically  !
 ! R19   R(16,18)                1.0947         calculate D2E/DX2 analytically  !
 ! R20   R(16,19)                1.0955         calculate D2E/DX2 analytically  !
 ! R21   R(20,21)                1.2538         calculate D2E/DX2 analytically  !
 ! R22   R(20,22)                1.2736         calculate D2E/DX2 analytically  !
 ! R23   R(20,23)                1.5229         calculate D2E/DX2 analytically  !
 ! R24   R(22,29)                1.6723         calculate D2E/DX2 analytically  !
 ! R25   R(23,24)                1.0973         calculate D2E/DX2 analytically  !
 ! R26   R(23,25)                1.0957         calculate D2E/DX2 analytically  !
 ! R27   R(23,26)                1.0929         calculate D2E/DX2 analytically  !
 ! R28   R(27,28)                0.9603         calculate D2E/DX2 analytically  !
 ! R29   R(28,29)                0.9949         calculate D2E/DX2 analytically  !
 ! A1    A(2,1,3)              130.9999         calculate D2E/DX2 analytically  !
 ! A2    A(2,1,8)              122.0961         calculate D2E/DX2 analytically  !
 ! A3    A(3,1,8)              106.8955         calculate D2E/DX2 analytically  !
 ! A4    A(1,3,4)              131.0089         calculate D2E/DX2 analytically  !
 ! A5    A(1,3,7)              106.8232         calculate D2E/DX2 analytically  !
 ! A6    A(4,3,7)              122.1677         calculate D2E/DX2 analytically  !
 ! A7    A(6,5,7)              123.6291         calculate D2E/DX2 analytically  !
 ! A8    A(6,5,8)              127.4313         calculate D2E/DX2 analytically  !
 ! A9    A(7,5,8)              108.6129         calculate D2E/DX2 analytically  !
 ! A10   A(5,6,21)             135.6352         calculate D2E/DX2 analytically  !
 ! A11   A(3,7,5)              108.8293         calculate D2E/DX2 analytically  !
 ! A12   A(3,7,13)             126.7973         calculate D2E/DX2 analytically  !
 ! A13   A(5,7,13)             123.5549         calculate D2E/DX2 analytically  !
 ! A14   A(1,8,5)              108.8307         calculate D2E/DX2 analytically  !
 ! A15   A(1,8,9)              126.5637         calculate D2E/DX2 analytically  !
 ! A16   A(5,8,9)              123.846          calculate D2E/DX2 analytically  !
 ! A17   A(8,9,10)             107.9205         calculate D2E/DX2 analytically  !
 ! A18   A(8,9,11)             110.1973         calculate D2E/DX2 analytically  !
 ! A19   A(8,9,12)             107.3361         calculate D2E/DX2 analytically  !
 ! A20   A(10,9,11)            110.9804         calculate D2E/DX2 analytically  !
 ! A21   A(10,9,12)            108.6422         calculate D2E/DX2 analytically  !
 ! A22   A(11,9,12)            111.6204         calculate D2E/DX2 analytically  !
 ! A23   A(7,13,14)            107.2863         calculate D2E/DX2 analytically  !
 ! A24   A(7,13,15)            106.3271         calculate D2E/DX2 analytically  !
 ! A25   A(7,13,16)            110.3807         calculate D2E/DX2 analytically  !
 ! A26   A(14,13,15)           109.9661         calculate D2E/DX2 analytically  !
 ! A27   A(14,13,16)           112.6453         calculate D2E/DX2 analytically  !
 ! A28   A(15,13,16)           110.0104         calculate D2E/DX2 analytically  !
 ! A29   A(13,16,17)           111.2378         calculate D2E/DX2 analytically  !
 ! A30   A(13,16,18)           108.7017         calculate D2E/DX2 analytically  !
 ! A31   A(13,16,19)           109.1784         calculate D2E/DX2 analytically  !
 ! A32   A(17,16,18)           109.6487         calculate D2E/DX2 analytically  !
 ! A33   A(17,16,19)           108.8693         calculate D2E/DX2 analytically  !
 ! A34   A(18,16,19)           109.177          calculate D2E/DX2 analytically  !
 ! A35   A(21,20,22)           124.8125         calculate D2E/DX2 analytically  !
 ! A36   A(21,20,23)           118.7908         calculate D2E/DX2 analytically  !
 ! A37   A(22,20,23)           116.3967         calculate D2E/DX2 analytically  !
 ! A38   A(6,21,20)             88.7381         calculate D2E/DX2 analytically  !
 ! A39   A(20,22,29)           116.7723         calculate D2E/DX2 analytically  !
 ! A40   A(20,23,24)           108.5433         calculate D2E/DX2 analytically  !
 ! A41   A(20,23,25)           109.6071         calculate D2E/DX2 analytically  !
 ! A42   A(20,23,26)           110.8219         calculate D2E/DX2 analytically  !
 ! A43   A(24,23,25)           107.2962         calculate D2E/DX2 analytically  !
 ! A44   A(24,23,26)           109.6578         calculate D2E/DX2 analytically  !
 ! A45   A(25,23,26)           110.821          calculate D2E/DX2 analytically  !
 ! A46   A(27,28,29)           104.8317         calculate D2E/DX2 analytically  !
 ! A47   L(22,29,28,5,-1)      175.8191         calculate D2E/DX2 analytically  !
 ! A48   L(22,29,28,5,-2)      183.605          calculate D2E/DX2 analytically  !
 ! D1    D(2,1,3,4)              0.7364         calculate D2E/DX2 analytically  !
 ! D2    D(2,1,3,7)           -179.103          calculate D2E/DX2 analytically  !
 ! D3    D(8,1,3,4)            179.6623         calculate D2E/DX2 analytically  !
 ! D4    D(8,1,3,7)             -0.177          calculate D2E/DX2 analytically  !
 ! D5    D(2,1,8,5)            178.6444         calculate D2E/DX2 analytically  !
 ! D6    D(2,1,8,9)              8.3858         calculate D2E/DX2 analytically  !
 ! D7    D(3,1,8,5)             -0.3988         calculate D2E/DX2 analytically  !
 ! D8    D(3,1,8,9)           -170.6573         calculate D2E/DX2 analytically  !
 ! D9    D(1,3,7,5)              0.6932         calculate D2E/DX2 analytically  !
 ! D10   D(1,3,7,13)           170.5492         calculate D2E/DX2 analytically  !
 ! D11   D(4,3,7,5)           -179.1636         calculate D2E/DX2 analytically  !
 ! D12   D(4,3,7,13)            -9.3075         calculate D2E/DX2 analytically  !
 ! D13   D(7,5,6,21)           -39.4588         calculate D2E/DX2 analytically  !
 ! D14   D(8,5,6,21)           133.2146         calculate D2E/DX2 analytically  !
 ! D15   D(6,5,7,3)            172.9139         calculate D2E/DX2 analytically  !
 ! D16   D(6,5,7,13)             2.6571         calculate D2E/DX2 analytically  !
 ! D17   D(8,5,7,3)             -0.9521         calculate D2E/DX2 analytically  !
 ! D18   D(8,5,7,13)          -171.2089         calculate D2E/DX2 analytically  !
 ! D19   D(6,5,8,1)           -172.7276         calculate D2E/DX2 analytically  !
 ! D20   D(6,5,8,9)             -2.1454         calculate D2E/DX2 analytically  !
 ! D21   D(7,5,8,1)              0.8393         calculate D2E/DX2 analytically  !
 ! D22   D(7,5,8,9)            171.4216         calculate D2E/DX2 analytically  !
 ! D23   D(5,6,21,20)         -119.2936         calculate D2E/DX2 analytically  !
 ! D24   D(3,7,13,14)           48.4917         calculate D2E/DX2 analytically  !
 ! D25   D(3,7,13,15)          166.1247         calculate D2E/DX2 analytically  !
 ! D26   D(3,7,13,16)          -74.5866         calculate D2E/DX2 analytically  !
 ! D27   D(5,7,13,14)         -143.0471         calculate D2E/DX2 analytically  !
 ! D28   D(5,7,13,15)          -25.4141         calculate D2E/DX2 analytically  !
 ! D29   D(5,7,13,16)           93.8747         calculate D2E/DX2 analytically  !
 ! D30   D(1,8,9,10)            42.6307         calculate D2E/DX2 analytically  !
 ! D31   D(1,8,9,11)           -78.6966         calculate D2E/DX2 analytically  !
 ! D32   D(1,8,9,12)           159.5601         calculate D2E/DX2 analytically  !
 ! D33   D(5,8,9,10)          -126.2517         calculate D2E/DX2 analytically  !
 ! D34   D(5,8,9,11)           112.4209         calculate D2E/DX2 analytically  !
 ! D35   D(5,8,9,12)            -9.3223         calculate D2E/DX2 analytically  !
 ! D36   D(7,13,16,17)          60.0976         calculate D2E/DX2 analytically  !
 ! D37   D(7,13,16,18)         -60.7275         calculate D2E/DX2 analytically  !
 ! D38   D(7,13,16,19)        -179.7345         calculate D2E/DX2 analytically  !
 ! D39   D(14,13,16,17)        -59.8007         calculate D2E/DX2 analytically  !
 ! D40   D(14,13,16,18)        179.3742         calculate D2E/DX2 analytically  !
 ! D41   D(14,13,16,19)         60.3673         calculate D2E/DX2 analytically  !
 ! D42   D(15,13,16,17)        177.1276         calculate D2E/DX2 analytically  !
 ! D43   D(15,13,16,18)         56.3025         calculate D2E/DX2 analytically  !
 ! D44   D(15,13,16,19)        -62.7044         calculate D2E/DX2 analytically  !
 ! D45   D(22,20,21,6)          30.034          calculate D2E/DX2 analytically  !
 ! D46   D(23,20,21,6)        -149.8659         calculate D2E/DX2 analytically  !
 ! D47   D(21,20,22,29)         42.8932         calculate D2E/DX2 analytically  !
 ! D48   D(23,20,22,29)       -137.2048         calculate D2E/DX2 analytically  !
 ! D49   D(21,20,23,24)       -111.6344         calculate D2E/DX2 analytically  !
 ! D50   D(21,20,23,25)        131.4687         calculate D2E/DX2 analytically  !
 ! D51   D(21,20,23,26)          8.8419         calculate D2E/DX2 analytically  !
 ! D52   D(22,20,23,24)         68.4573         calculate D2E/DX2 analytically  !
 ! D53   D(22,20,23,25)        -48.4395         calculate D2E/DX2 analytically  !
 ! D54   D(22,20,23,26)       -171.0663         calculate D2E/DX2 analytically  !
 ! D55   D(20,22,28,27)         89.4082         calculate D2E/DX2 analytically  !
 --------------------------------------------------------------------------------
 Trust Radius=3.00D-01 FncErr=1.00D-07 GrdErr=1.00D-07
 Number of steps in this run=      2 maximum allowed number of steps=      2.
 GradGradGradGradGradGradGradGradGradGradGradGradGradGradGradGradGradGrad

                          Input orientation:                          
 ---------------------------------------------------------------------
 Center     Atomic      Atomic             Coordinates (Angstroms)
 Number     Number       Type             X           Y           Z
 ---------------------------------------------------------------------
      1          6           0       -2.762229    0.472503    0.045533
      2          1           0       -3.605528    1.044247    0.407534
      3          6           0       -2.568535   -0.872909   -0.048215
      4          1           0       -3.214248   -1.702335    0.206511
      5          6           0       -0.742581    0.130502   -0.760335
      6          1           0        0.294484    0.264241   -1.055018
      7          7           0       -1.304709   -1.058736   -0.562465
      8          7           0       -1.611834    1.074783   -0.409425
      9          6           0       -1.279539    2.493332   -0.320978
     10          1           0       -1.565240    2.844311    0.674078
     11          1           0       -1.805167    3.053703   -1.099901
     12          1           0       -0.193414    2.580951   -0.424404
     13          6           0       -0.574148   -2.329393   -0.664468
     14          1           0       -1.255782   -3.061902   -1.110597
     15          1           0        0.268665   -2.146252   -1.336208
     16          6           0       -0.065920   -2.759356    0.702883
     17          1           0       -0.893842   -2.899601    1.408378
     18          1           0        0.614615   -1.990325    1.082154
     19          1           0        0.478811   -3.704621    0.603447
     20          6           0        2.440520    0.507586   -0.166509
     21          8           0        2.034593   -0.600624   -0.589779
     22          8           0        1.696677    1.410090    0.337693
     23          6           0        3.927502    0.825095   -0.251286
     24          1           0        4.336076    0.857115    0.766586
     25          1           0        4.066717    1.819621   -0.689640
     26          1           0        4.454153    0.066032   -0.835139
     27          1           0        0.110391    0.614041    2.876981
     28          8           0       -0.247461    0.634449    1.986065
     29          1           0        0.518189    0.902630    1.410161
 ---------------------------------------------------------------------
                    Distance matrix (angstroms):
                    1          2          3          4          5
     1  C    0.000000
     2  H    1.081244   0.000000
     3  C    1.362513   2.226781   0.000000
     4  H    2.227141   2.781586   1.081562   0.000000
     5  C    2.201219   3.224176   2.201830   3.225402   0.000000
     6  H    3.255469   4.237636   3.240931   4.215456   1.086383
     7  N    2.199709   3.264537   1.377040   2.156822   1.330198
     8  N    1.375913   2.154802   2.199830   3.264887   1.330565
     9  C    2.533070   2.835631   3.614898   4.650264   2.462584
    10  H    2.730078   2.733871   3.917402   4.858995   3.177903
    11  H    2.981708   3.090563   4.136068   5.129534   3.128818
    12  H    3.356367   3.833550   4.208547   5.279207   2.533601
    13  C    3.625248   4.660461   2.545327   2.849900   2.467518
    14  H    4.012236   4.968550   2.764717   2.723744   3.252307
    15  H    4.237146   5.313124   3.366011   3.835065   2.556923
    16  C    4.259942   5.204176   3.222718   3.357923   3.309102
    17  H    4.088925   4.889669   3.005618   2.874406   3.729305
    18  H    4.306180   5.241503   3.557920   3.938258   3.120041
    19  H    5.316388   6.266734   4.210650   4.219643   4.249691
    20  C    5.207186   6.096903   5.197152   6.082704   3.259901
    21  O    4.956281   5.959127   4.642867   5.422008   2.876861
    22  O    4.565772   5.315271   4.853148   5.815633   2.965298
    23  C    6.705588   7.564959   6.717361   7.589602   4.748817
    24  H    7.145193   7.951919   7.164533   7.991987   5.352777
    25  H    6.999265   7.788989   7.189417   8.137549   5.097791
    26  H    7.281275   8.213380   7.128745   7.938295   5.197673
    27  H    4.035973   4.482332   4.236088   4.852858   3.767153
    28  O    3.180557   3.733136   3.434794   4.174828   2.835810
    29  H    3.578876   4.246217   3.848020   4.708045   2.626171
                    6          7          8          9         10
     6  H    0.000000
     7  N    2.133142   0.000000
     8  N    2.169750   2.160937   0.000000
     9  C    2.825811   3.560356   1.459631   0.000000
    10  H    3.620098   4.102523   2.075423   1.093137   0.000000
    11  H    3.491654   4.177494   2.104819   1.094085   1.802336
    12  H    2.450074   3.808065   2.068981   1.094551   1.777056
    13  C    2.762967   1.469249   3.567948   4.886127   5.435180
    14  H    3.670101   2.077382   4.210769   5.611121   6.177717
    15  H    2.426975   2.063219   3.843210   4.995334   5.684204
    16  C    3.515998   2.455160   4.281086   5.487430   5.800851
    17  H    4.182145   2.727970   4.428955   5.676544   5.829451
    18  H    3.122989   2.693778   4.071458   5.065548   5.319023
    19  H    4.305386   3.397205   5.314076   6.508531   6.860878
    20  C    2.335409   4.078834   4.099060   4.219702   4.713065
    21  O    1.998103   3.370690   4.016957   4.541837   5.140399
    22  O    2.284461   3.989199   3.408352   3.234984   3.579141
    23  C    3.762893   5.569711   5.547215   5.468194   5.924841
    24  H    4.472607   6.103714   6.066961   5.949381   6.227603
    25  H    4.096639   6.095353   5.734043   5.401135   5.884612
    26  H    4.170190   5.874006   6.164009   6.247509   6.799240
    27  H    3.951818   4.078049   3.738824   3.961134   3.554522
    28  O    3.111100   3.237229   2.791734   3.137368   2.888138
    29  H    2.556304   3.325833   2.806693   2.959561   2.941534
                   11         12         13         14         15
    11  H    0.000000
    12  H    1.810397   0.000000
    13  C    5.539200   4.930930   0.000000
    14  H    6.140241   5.782843   1.095548   0.000000
    15  H    5.603227   4.836460   1.093211   1.792555   0.000000
    16  C    6.329824   5.459479   1.520793   2.189981   2.155397
    17  H    6.524095   5.821181   2.173483   2.550015   3.074364
    18  H    6.004909   4.880492   2.139816   3.074869   2.447953
    19  H    7.334364   6.404435   2.146528   2.521874   2.496987
    20  C    5.037836   3.361988   4.169489   5.224480   3.623259
    21  O    5.325231   3.887645   3.130456   4.141945   2.462646
    22  O    4.126869   2.350351   4.488286   5.550971   4.181953
    23  C    6.208891   4.482739   5.512383   6.535563   4.836635
    24  H    6.784073   4.990626   6.025948   7.081765   5.475928
    25  H    6.014175   4.335746   6.225157   7.234326   5.529141
    26  H    6.940848   5.300321   5.572343   6.516380   4.760628
    27  H    5.043502   3.854890   4.655562   5.592832   5.039368
    28  O    4.219292   3.098734   3.989537   4.926361   4.363047
    29  H    4.040484   2.586266   3.992901   5.021823   4.111020
                   16         17         18         19         20
    16  C    0.000000
    17  H    1.096744   0.000000
    18  H    1.094707   1.791270   0.000000
    19  H    1.095512   1.783297   1.785053   0.000000
    20  C    4.208443   5.020673   3.336562   4.709971   0.000000
    21  O    3.277690   4.225359   2.596722   3.671382   1.253819
    22  O    4.541409   5.141070   3.645258   5.264418   1.273592
    23  C    5.450334   6.314523   4.547512   5.756941   1.522864
    24  H    5.697411   6.471233   4.696464   5.976165   2.141488
    25  H    6.323357   7.160997   5.438010   6.712853   2.153978
    26  H    5.547918   6.513785   4.758852   5.664866   2.167200
    27  H    4.017163   3.938396   3.202869   4.894439   3.834536
    28  O    3.632826   3.638824   2.906832   4.611576   3.445999
    29  H    3.775124   4.055957   2.913087   4.677510   2.517401
                   21         22         23         24         25
    21  O    0.000000
    22  O    2.239947   0.000000
    23  C    2.393816   2.380272   0.000000
    24  H    3.043280   2.730597   1.097280   0.000000
    25  H    3.161817   2.615381   1.095726   1.766229   0.000000
    26  H    2.521687   3.284159   1.092897   1.790330   1.801763
    27  H    4.146853   3.098061   4.939730   4.729616   5.461385
    28  O    3.656247   2.664287   4.740506   4.748213   5.213076
    29  H    2.925579   1.672286   3.793393   3.872018   4.223990
                   26         27         28         29
    26  H    0.000000
    27  H    5.740072   0.000000
    28  O    5.512483   0.960316   0.000000
    29  H    4.607937   1.549562   0.994890   0.000000
 Stoichiometry    C8H16N2O3
 Framework group  C1[X(C8H16N2O3)]
 Deg. of freedom    81
 Full point group                 C1      NOp   1
 Largest Abelian subgroup         C1      NOp   1
 Largest concise Abelian subgroup C1      NOp   1
                         Standard orientation:                         
 ---------------------------------------------------------------------
 Center     Atomic      Atomic             Coordinates (Angstroms)
 Number     Number       Type             X           Y           Z
 ---------------------------------------------------------------------
      1          6           0        2.624384   -0.987138   -0.015939
      2          1           0        3.343067   -1.724571    0.313873
      3          6           0        2.693302    0.373062   -0.055308
      4          1           0        3.487779    1.051789    0.223823
      5          6           0        0.705400   -0.230726   -0.784514
      6          1           0       -0.339140   -0.150421   -1.072115
      7          7           0        1.486996    0.819163   -0.547304
      8          7           0        1.377695   -1.337974   -0.480500
      9          6           0        0.778538   -2.668440   -0.443164
     10          1           0        0.995118   -3.107556    0.534190
     11          1           0        1.183236   -3.287720   -1.249225
     12          1           0       -0.304503   -2.541163   -0.537311
     13          6           0        1.014678    2.209719   -0.591592
     14          1           0        1.822977    2.814683   -1.016912
     15          1           0        0.149746    2.219359   -1.260105
     16          6           0        0.604218    2.674132    0.797169
     17          1           0        1.446402    2.623941    1.497921
     18          1           0       -0.210305    2.035835    1.154259
     19          1           0        0.251530    3.709781    0.740701
     20          6           0       -2.488342   -0.011723   -0.168881
     21          8           0       -1.878066    1.013751   -0.553628
     22          8           0       -1.930451   -1.060037    0.291369
     23          6           0       -4.008960   -0.033451   -0.248645
     24          1           0       -4.412057   -0.027134    0.771892
     25          1           0       -4.338987   -0.964151   -0.723509
     26          1           0       -4.381697    0.835624   -0.796549
     27          1           0       -0.210540   -0.686893    2.841007
     28          8           0        0.133177   -0.739957    1.945882
     29          1           0       -0.672056   -0.832399    1.368943
 ---------------------------------------------------------------------
 Rotational constants (GHZ):      0.9862681      0.5947368      0.4494617
 Standard basis: Aug-CC-pVDZ (5D, 7F)
 There are   469 symmetry adapted cartesian basis functions of A   symmetry.
 There are   443 symmetry adapted basis functions of A   symmetry.
   443 basis functions,   735 primitive gaussians,   469 cartesian basis functions
    51 alpha electrons       51 beta electrons
       nuclear repulsion energy       881.0607828513 Hartrees.
 NAtoms=   29 NActive=   29 NUniq=   29 SFac= 1.00D+00 NAtFMM=   60 NAOKFM=F Big=F
 Integral buffers will be    131072 words long.
 Raffenetti 2 integral format.
 Two-electron integral symmetry is turned on.
 One-electron integrals computed using PRISM.
 NBasis=   443 RedAO= T EigKep=  5.40D-06  NBF=   443
 NBsUse=   443 1.00D-06 EigRej= -1.00D+00 NBFU=   443
 Initial guess from the checkpoint file:  "FlatRevAnAboveOxyAwyWater.chk"
 B after Tr=     0.000000    0.000000    0.000000
         Rot=    1.000000    0.000000    0.000000    0.000000 Ang=   0.00 deg.
 Requested convergence on RMS density matrix=1.00D-10 within 128 cycles.
 Requested convergence on MAX density matrix=1.00D-08.
 Requested convergence on             energy=1.00D-08.
 No special actions if energy rises.
 SCF Done:  E(RM062X) =  -649.498410941     A.U. after    2 cycles
            NFock=  2  Conv=0.12D-10     -V/T= 2.0062
 DoSCS=F DFT=T ScalE2(SS,OS)=  1.000000  1.000000
 Range of M.O.s used for correlation:     1   443
 NBasis=   443 NAE=    51 NBE=    51 NFC=     0 NFV=     0
 NROrb=    443 NOA=    51 NOB=    51 NVA=   392 NVB=   392

 **** Warning!!: The largest alpha MO coefficient is  0.62692648D+02

 Symmetrizing basis deriv contribution to polar:
 IMax=3 JMax=2 DiffMx= 0.00D+00
 G2DrvN: will do    30 centers at a time, making    1 passes.
 Calling FoFCou, ICntrl=  3107 FMM=F I1Cent=   0 AccDes= 0.00D+00.
 End of G2Drv F.D. properties file   721 does not exist.
 End of G2Drv F.D. properties file   722 does not exist.
 End of G2Drv F.D. properties file   788 does not exist.
          IDoAtm=11111111111111111111111111111
          Differentiating once with respect to electric field.
                with respect to dipole field.
          Differentiating once with respect to nuclear coordinates.
          There are    90 degrees of freedom in the 1st order CPHF.  IDoFFX=6 NUNeed=     3.
     87 vectors produced by pass  0 Test12= 2.22D-14 1.11D-09 XBig12= 7.59D+01 2.15D+00.
 AX will form    87 AO Fock derivatives at one time.
     87 vectors produced by pass  1 Test12= 2.22D-14 1.11D-09 XBig12= 1.71D+01 6.35D-01.
     87 vectors produced by pass  2 Test12= 2.22D-14 1.11D-09 XBig12= 3.37D-01 4.66D-02.
     87 vectors produced by pass  3 Test12= 2.22D-14 1.11D-09 XBig12= 2.85D-03 5.14D-03.
     87 vectors produced by pass  4 Test12= 2.22D-14 1.11D-09 XBig12= 1.98D-05 3.73D-04.
     87 vectors produced by pass  5 Test12= 2.22D-14 1.11D-09 XBig12= 8.84D-08 1.89D-05.
     71 vectors produced by pass  6 Test12= 2.22D-14 1.11D-09 XBig12= 3.02D-10 1.03D-06.
     10 vectors produced by pass  7 Test12= 2.22D-14 1.11D-09 XBig12= 9.14D-13 5.49D-08.
      3 vectors produced by pass  8 Test12= 2.22D-14 1.11D-09 XBig12= 2.87D-15 3.66D-09.
      2 vectors produced by pass  9 Test12= 2.22D-14 1.11D-09 XBig12= 3.60D-16 1.82D-09.
 InvSVY:  IOpt=1 It=  1 EMax= 8.88D-15
 Solved reduced A of dimension   608 with    90 vectors.
 Isotropic polarizability for W=    0.000000      129.56 Bohr**3.
 End of Minotr F.D. properties file   721 does not exist.
 End of Minotr F.D. properties file   722 does not exist.
 End of Minotr F.D. properties file   788 does not exist.

 **********************************************************************

            Population analysis using the SCF density.

 **********************************************************************

 Orbital symmetries:
       Occupied  (A) (A) (A) (A) (A) (A) (A) (A) (A) (A) (A) (A)
                 (A) (A) (A) (A) (A) (A) (A) (A) (A) (A) (A) (A)
                 (A) (A) (A) (A) (A) (A) (A) (A) (A) (A) (A) (A)
                 (A) (A) (A) (A) (A) (A) (A) (A) (A) (A) (A) (A)
                 (A) (A) (A)
       Virtual   (A) (A) (A) (A) (A) (A) (A) (A) (A) (A) (A) (A)
                 (A) (A) (A) (A) (A) (A) (A) (A) (A) (A) (A) (A)
                 (A) (A) (A) (A) (A) (A) (A) (A) (A) (A) (A) (A)
                 (A) (A) (A) (A) (A) (A) (A) (A) (A) (A) (A) (A)
                 (A) (A) (A) (A) (A) (A) (A) (A) (A) (A) (A) (A)
                 (A) (A) (A) (A) (A) (A) (A) (A) (A) (A) (A) (A)
                 (A) (A) (A) (A) (A) (A) (A) (A) (A) (A) (A) (A)
                 (A) (A) (A) (A) (A) (A) (A) (A) (A) (A) (A) (A)
                 (A) (A) (A) (A) (A) (A) (A) (A) (A) (A) (A) (A)
                 (A) (A) (A) (A) (A) (A) (A) (A) (A) (A) (A) (A)
                 (A) (A) (A) (A) (A) (A) (A) (A) (A) (A) (A) (A)
                 (A) (A) (A) (A) (A) (A) (A) (A) (A) (A) (A) (A)
                 (A) (A) (A) (A) (A) (A) (A) (A) (A) (A) (A) (A)
                 (A) (A) (A) (A) (A) (A) (A) (A) (A) (A) (A) (A)
                 (A) (A) (A) (A) (A) (A) (A) (A) (A) (A) (A) (A)
                 (A) (A) (A) (A) (A) (A) (A) (A) (A) (A) (A) (A)
                 (A) (A) (A) (A) (A) (A) (A) (A) (A) (A) (A) (A)
                 (A) (A) (A) (A) (A) (A) (A) (A) (A) (A) (A) (A)
                 (A) (A) (A) (A) (A) (A) (A) (A) (A) (A) (A) (A)
                 (A) (A) (A) (A) (A) (A) (A) (A) (A) (A) (A) (A)
                 (A) (A) (A) (A) (A) (A) (A) (A) (A) (A) (A) (A)
                 (A) (A) (A) (A) (A) (A) (A) (A) (A) (A) (A) (A)
                 (A) (A) (A) (A) (A) (A) (A) (A) (A) (A) (A) (A)
                 (A) (A) (A) (A) (A) (A) (A) (A) (A) (A) (A) (A)
                 (A) (A) (A) (A) (A) (A) (A) (A) (A) (A) (A) (A)
                 (A) (A) (A) (A) (A) (A) (A) (A) (A) (A) (A) (A)
                 (A) (A) (A) (A) (A) (A) (A) (A) (A) (A) (A) (A)
                 (A) (A) (A) (A) (A) (A) (A) (A) (A) (A) (A) (A)
                 (A) (A) (A) (A) (A) (A) (A) (A) (A) (A) (A) (A)
                 (A) (A) (A) (A) (A) (A) (A) (A) (A) (A) (A) (A)
                 (A) (A) (A) (A) (A) (A) (A) (A) (A) (A) (A) (A)
                 (A) (A) (A) (A) (A) (A) (A) (A) (A) (A) (A) (A)
                 (A) (A) (A) (A) (A) (A) (A) (A)
 The electronic state is 1-A.
 Alpha  occ. eigenvalues --  -19.59632 -19.55878 -19.55759 -14.85954 -14.85704
 Alpha  occ. eigenvalues --  -10.64328 -10.61698 -10.61604 -10.60950 -10.60433
 Alpha  occ. eigenvalues --  -10.60059 -10.54142 -10.50297  -1.19907  -1.12702
 Alpha  occ. eigenvalues --   -1.08368  -1.07344  -1.02676  -0.91615  -0.87966
 Alpha  occ. eigenvalues --   -0.83140  -0.77901  -0.75662  -0.72376  -0.69826
 Alpha  occ. eigenvalues --   -0.63831  -0.59779  -0.57402  -0.56531  -0.55083
 Alpha  occ. eigenvalues --   -0.54581  -0.54315  -0.52997  -0.51560  -0.50752
 Alpha  occ. eigenvalues --   -0.48401  -0.47722  -0.47397  -0.46930  -0.46011
 Alpha  occ. eigenvalues --   -0.44278  -0.43038  -0.42233  -0.41348  -0.39041
 Alpha  occ. eigenvalues --   -0.37080  -0.35370  -0.33019  -0.29501  -0.28710
 Alpha  occ. eigenvalues --   -0.28111
 Alpha virt. eigenvalues --   -0.01504  -0.00407  -0.00087   0.00793   0.01470
 Alpha virt. eigenvalues --    0.02017   0.02134   0.02539   0.02826   0.03416
 Alpha virt. eigenvalues --    0.03785   0.04307   0.04557   0.05329   0.05584
 Alpha virt. eigenvalues --    0.05963   0.06009   0.06840   0.07116   0.07912
 Alpha virt. eigenvalues --    0.08154   0.08717   0.09119   0.09311   0.09955
 Alpha virt. eigenvalues --    0.10345   0.10841   0.11152   0.11543   0.11794
 Alpha virt. eigenvalues --    0.12265   0.12433   0.12938   0.13229   0.13967
 Alpha virt. eigenvalues --    0.13997   0.14361   0.14541   0.14684   0.15210
 Alpha virt. eigenvalues --    0.15578   0.16086   0.16212   0.16384   0.17223
 Alpha virt. eigenvalues --    0.17350   0.17595   0.18059   0.18548   0.19025
 Alpha virt. eigenvalues --    0.19151   0.19819   0.20555   0.21209   0.21680
 Alpha virt. eigenvalues --    0.22316   0.22683   0.22881   0.23344   0.23608
 Alpha virt. eigenvalues --    0.24271   0.24581   0.25153   0.25297   0.26036
 Alpha virt. eigenvalues --    0.26569   0.27164   0.27232   0.27819   0.28339
 Alpha virt. eigenvalues --    0.28864   0.29338   0.29646   0.29843   0.30269
 Alpha virt. eigenvalues --    0.30676   0.31498   0.31906   0.32310   0.33518
 Alpha virt. eigenvalues --    0.34010   0.34563   0.35022   0.35177   0.35735
 Alpha virt. eigenvalues --    0.35946   0.36510   0.37098   0.37612   0.37801
 Alpha virt. eigenvalues --    0.38173   0.38603   0.38866   0.39524   0.39858
 Alpha virt. eigenvalues --    0.40179   0.40406   0.41243   0.41849   0.42232
 Alpha virt. eigenvalues --    0.42454   0.43025   0.43665   0.43912   0.44832
 Alpha virt. eigenvalues --    0.45141   0.46063   0.46545   0.47143   0.47554
 Alpha virt. eigenvalues --    0.47864   0.48204   0.48764   0.49368   0.49634
 Alpha virt. eigenvalues --    0.50204   0.50271   0.51206   0.51416   0.52113
 Alpha virt. eigenvalues --    0.52376   0.52544   0.52961   0.53435   0.53753
 Alpha virt. eigenvalues --    0.54084   0.54751   0.54902   0.56119   0.56376
 Alpha virt. eigenvalues --    0.57025   0.57300   0.57767   0.58360   0.58830
 Alpha virt. eigenvalues --    0.59074   0.59607   0.60137   0.60686   0.61569
 Alpha virt. eigenvalues --    0.62015   0.62229   0.62765   0.62928   0.63527
 Alpha virt. eigenvalues --    0.64101   0.64339   0.65412   0.65454   0.65681
 Alpha virt. eigenvalues --    0.66648   0.67127   0.67797   0.68338   0.69152
 Alpha virt. eigenvalues --    0.69308   0.69884   0.70088   0.71466   0.71813
 Alpha virt. eigenvalues --    0.72179   0.72311   0.73985   0.74086   0.74665
 Alpha virt. eigenvalues --    0.75509   0.75571   0.76366   0.76809   0.78101
 Alpha virt. eigenvalues --    0.78359   0.78754   0.80018   0.80255   0.80732
 Alpha virt. eigenvalues --    0.81697   0.82137   0.83049   0.84295   0.85016
 Alpha virt. eigenvalues --    0.85721   0.86167   0.86747   0.87855   0.89000
 Alpha virt. eigenvalues --    0.90059   0.91280   0.91782   0.92248   0.94101
 Alpha virt. eigenvalues --    0.95573   0.95780   0.96040   0.96884   0.97488
 Alpha virt. eigenvalues --    0.98897   0.99089   0.99730   1.00624   1.00805
 Alpha virt. eigenvalues --    1.02138   1.02942   1.03958   1.04870   1.05281
 Alpha virt. eigenvalues --    1.05786   1.06360   1.07687   1.08846   1.09816
 Alpha virt. eigenvalues --    1.10876   1.11719   1.12972   1.14692   1.15852
 Alpha virt. eigenvalues --    1.16688   1.17078   1.17822   1.19564   1.20274
 Alpha virt. eigenvalues --    1.21358   1.23239   1.23876   1.24572   1.26882
 Alpha virt. eigenvalues --    1.27635   1.30095   1.32204   1.34239   1.34548
 Alpha virt. eigenvalues --    1.35396   1.37447   1.37790   1.39290   1.39680
 Alpha virt. eigenvalues --    1.40786   1.42066   1.42979   1.43786   1.45029
 Alpha virt. eigenvalues --    1.45497   1.46247   1.47163   1.49260   1.50232
 Alpha virt. eigenvalues --    1.50593   1.52015   1.52893   1.54617   1.56642
 Alpha virt. eigenvalues --    1.56965   1.57632   1.59268   1.60358   1.61216
 Alpha virt. eigenvalues --    1.61808   1.62653   1.63677   1.64304   1.65663
 Alpha virt. eigenvalues --    1.65879   1.66846   1.67655   1.69180   1.70543
 Alpha virt. eigenvalues --    1.71406   1.72043   1.73670   1.75074   1.76348
 Alpha virt. eigenvalues --    1.76882   1.78149   1.79263   1.79716   1.81551
 Alpha virt. eigenvalues --    1.82018   1.83355   1.84036   1.85017   1.87659
 Alpha virt. eigenvalues --    1.88065   1.89624   1.90318   1.90681   1.91618
 Alpha virt. eigenvalues --    1.92326   1.93029   1.94686   1.95058   1.95739
 Alpha virt. eigenvalues --    1.97221   1.98262   1.98638   1.99624   1.99766
 Alpha virt. eigenvalues --    2.01940   2.02561   2.03014   2.03432   2.05902
 Alpha virt. eigenvalues --    2.06187   2.06685   2.07865   2.08760   2.09699
 Alpha virt. eigenvalues --    2.10266   2.11366   2.12215   2.12855   2.14169
 Alpha virt. eigenvalues --    2.15176   2.16276   2.17401   2.19863   2.21337
 Alpha virt. eigenvalues --    2.22129   2.23004   2.24991   2.25498   2.27916
 Alpha virt. eigenvalues --    2.28748   2.30235   2.32031   2.32601   2.32914
 Alpha virt. eigenvalues --    2.33665   2.36889   2.37473   2.40082   2.41367
 Alpha virt. eigenvalues --    2.42340   2.43587   2.44120   2.44970   2.47561
 Alpha virt. eigenvalues --    2.48708   2.49739   2.51160   2.51948   2.53613
 Alpha virt. eigenvalues --    2.55595   2.56306   2.56911   2.59562   2.60755
 Alpha virt. eigenvalues --    2.60979   2.64764   2.65159   2.68856   2.70707
 Alpha virt. eigenvalues --    2.72396   2.72820   2.74645   2.75303   2.76208
 Alpha virt. eigenvalues --    2.76356   2.78443   2.81314   2.82551   2.84617
 Alpha virt. eigenvalues --    2.88122   2.92060   2.94173   2.96867   2.99215
 Alpha virt. eigenvalues --    3.00036   3.00603   3.03662   3.09065   3.11574
 Alpha virt. eigenvalues --    3.12727   3.18899   3.21605   3.26078   3.34984
 Alpha virt. eigenvalues --    3.54890   3.55394   3.58457   3.59616   3.60572
 Alpha virt. eigenvalues --    3.65172   3.66520   3.68949   3.70319   3.77543
 Alpha virt. eigenvalues --    3.80970   3.84169   3.88488   3.92031   4.02515
 Alpha virt. eigenvalues --    4.03702   4.16432
          Condensed to atoms (all electrons):
               1          2          3          4          5          6
     1  C    8.271921  -0.328048  -1.781458  -0.054745  -0.841044  -0.007487
     2  H   -0.328048   2.140992  -0.002141  -0.007255   0.080920   0.018188
     3  C   -1.781458  -0.002141   9.158792  -0.391447  -2.702767  -0.224988
     4  H   -0.054745  -0.007255  -0.391447   2.077726   0.231311   0.027462
     5  C   -0.841044   0.080920  -2.702767   0.231311  12.959219  -0.379112
     6  H   -0.007487   0.018188  -0.224988   0.027462  -0.379112   2.826775
     7  N    0.364442  -0.025610   0.355330  -0.121295  -1.516855  -0.291794
     8  N   -0.065533  -0.192787   0.410024  -0.005957  -0.744781  -0.346840
     9  C   -0.310238  -0.043826   0.060195   0.009566  -0.427190   0.144319
    10  H    0.379370  -0.007329  -0.091487  -0.000199  -0.347240   0.003983
    11  H   -0.043115  -0.027885   0.041464  -0.001146   0.355167  -0.008048
    12  H   -0.174756   0.018236   0.012612  -0.000645  -0.011169   0.034744
    13  C   -0.121474   0.017092   0.135686  -0.142056  -0.748188  -0.110796
    14  H    0.100648   0.003821   0.147805  -0.020108  -0.014556  -0.001488
    15  H   -0.041053  -0.002675  -0.124960  -0.011356   0.301325   0.036308
    16  C    0.005009  -0.005985  -0.082403   0.048333  -0.057023   0.057809
    17  H   -0.011406   0.000764   0.011505  -0.040350   0.056019  -0.001950
    18  H   -0.032500   0.000297   0.060962   0.004014   0.058895   0.033773
    19  H    0.038668   0.000686  -0.096860   0.000732   0.026439   0.011269
    20  C   -0.027881   0.000791   0.035929  -0.000187  -0.076407  -0.046299
    21  O    0.008022   0.000810   0.035562  -0.000178  -0.109002   0.032692
    22  O    0.041781   0.002685  -0.007468  -0.000677  -0.051313  -0.016368
    23  C    0.002571   0.000379  -0.006869  -0.000950  -0.047372   0.032640
    24  H    0.001000   0.000059  -0.001433  -0.000138   0.000121  -0.005524
    25  H   -0.000323  -0.000056   0.000656   0.000010   0.002456   0.005433
    26  H    0.000074   0.000017   0.000613  -0.000016   0.000760  -0.001528
    27  H   -0.006097  -0.002992  -0.006351   0.000057   0.042449   0.008005
    28  O   -0.026746   0.015442   0.088643   0.000776  -0.253972   0.012407
    29  H    0.023991   0.006329   0.030654  -0.000257  -0.174702   0.009663
               7          8          9         10         11         12
     1  C    0.364442  -0.065533  -0.310238   0.379370  -0.043115  -0.174756
     2  H   -0.025610  -0.192787  -0.043826  -0.007329  -0.027885   0.018236
     3  C    0.355330   0.410024   0.060195  -0.091487   0.041464   0.012612
     4  H   -0.121295  -0.005957   0.009566  -0.000199  -0.001146  -0.000645
     5  C   -1.516855  -0.744781  -0.427190  -0.347240   0.355167  -0.011169
     6  H   -0.291794  -0.346840   0.144319   0.003983  -0.008048   0.034744
     7  N    8.029594  -0.292630  -0.052594   0.070474  -0.112512   0.107294
     8  N   -0.292630   7.931470   0.477975   0.255069  -0.506239   0.024744
     9  C   -0.052594   0.477975   4.266708   0.060449   0.083746   0.335170
    10  H    0.070474   0.255069   0.060449   1.724972  -0.412312  -0.400249
    11  H   -0.112512  -0.506239   0.083746  -0.412312   2.374960  -0.487669
    12  H    0.107294   0.024744   0.335170  -0.400249  -0.487669   1.937514
    13  C    0.620148   0.038277  -0.005982  -0.000019   0.004306   0.002940
    14  H   -0.391988  -0.129837  -0.004716   0.000496   0.001176  -0.000418
    15  H   -0.118282   0.083672   0.008409  -0.000402   0.002287  -0.002409
    16  C    0.036165  -0.000884   0.003239  -0.000929   0.000193  -0.001267
    17  H   -0.000510   0.039645   0.002302   0.000402  -0.000212  -0.000099
    18  H   -0.109094  -0.061898  -0.009062  -0.000530  -0.000239  -0.001699
    19  H    0.033302  -0.017196   0.000661   0.000255  -0.000013   0.000108
    20  C    0.052623   0.005891   0.022411   0.005444   0.007787  -0.026006
    21  O    0.042365   0.018160  -0.008727   0.000423  -0.002289  -0.002608
    22  O    0.012439  -0.011826  -0.040339   0.017034   0.003484   0.019074
    23  C   -0.005294  -0.001549  -0.001374   0.003681   0.000802  -0.012540
    24  H   -0.000906   0.001425  -0.001371  -0.000330   0.000043  -0.001054
    25  H   -0.002612   0.000387   0.005498   0.001428   0.000153  -0.003270
    26  H    0.002460  -0.002047   0.000621  -0.000121   0.000298   0.000604
    27  H   -0.007073   0.021066   0.003524   0.002874   0.003894  -0.008507
    28  O    0.045469  -0.044676   0.002450  -0.022887  -0.002475   0.033373
    29  H    0.023807   0.013304  -0.004794   0.005335  -0.021998   0.023161
              13         14         15         16         17         18
     1  C   -0.121474   0.100648  -0.041053   0.005009  -0.011406  -0.032500
     2  H    0.017092   0.003821  -0.002675  -0.005985   0.000764   0.000297
     3  C    0.135686   0.147805  -0.124960  -0.082403   0.011505   0.060962
     4  H   -0.142056  -0.020108  -0.011356   0.048333  -0.040350   0.004014
     5  C   -0.748188  -0.014556   0.301325  -0.057023   0.056019   0.058895
     6  H   -0.110796  -0.001488   0.036308   0.057809  -0.001950   0.033773
     7  N    0.620148  -0.391988  -0.118282   0.036165  -0.000510  -0.109094
     8  N    0.038277  -0.129837   0.083672  -0.000884   0.039645  -0.061898
     9  C   -0.005982  -0.004716   0.008409   0.003239   0.002302  -0.009062
    10  H   -0.000019   0.000496  -0.000402  -0.000929   0.000402  -0.000530
    11  H    0.004306   0.001176   0.002287   0.000193  -0.000212  -0.000239
    12  H    0.002940  -0.000418  -0.002409  -0.001267  -0.000099  -0.001699
    13  C    5.276053  -0.004625  -0.268642   0.159873  -0.074136   0.001072
    14  H   -0.004625   2.753612  -0.666585  -0.121514  -0.118839   0.167944
    15  H   -0.268642  -0.666585   2.390151  -0.003743   0.133571  -0.162483
    16  C    0.159873  -0.121514  -0.003743   4.298902   0.064551   0.414605
    17  H   -0.074136  -0.118839   0.133571   0.064551   1.908089  -0.326742
    18  H    0.001072   0.167944  -0.162483   0.414605  -0.326742   1.609749
    19  H    0.107493  -0.101918  -0.096212   0.187562  -0.385967  -0.313152
    20  C   -0.092813  -0.003526   0.038911   0.012353   0.002384  -0.035526
    21  O    0.012190   0.010426  -0.037284  -0.022198   0.011479  -0.019138
    22  O    0.026965   0.002245  -0.010178   0.002031  -0.000275   0.009228
    23  C    0.011114   0.003822  -0.002466   0.000574   0.001556   0.008983
    24  H    0.003129   0.000287   0.000864   0.002145   0.000726  -0.000580
    25  H    0.003814   0.000371   0.000374  -0.001059  -0.000095  -0.002054
    26  H   -0.009135  -0.000499  -0.000810   0.000355  -0.000188   0.002519
    27  H   -0.001537  -0.000201   0.000862  -0.002771  -0.001984  -0.000287
    28  O    0.040428  -0.000625  -0.000088  -0.007921   0.000284  -0.018809
    29  H    0.000391  -0.002046  -0.002952   0.001885   0.008108  -0.013630
              19         20         21         22         23         24
     1  C    0.038668  -0.027881   0.008022   0.041781   0.002571   0.001000
     2  H    0.000686   0.000791   0.000810   0.002685   0.000379   0.000059
     3  C   -0.096860   0.035929   0.035562  -0.007468  -0.006869  -0.001433
     4  H    0.000732  -0.000187  -0.000178  -0.000677  -0.000950  -0.000138
     5  C    0.026439  -0.076407  -0.109002  -0.051313  -0.047372   0.000121
     6  H    0.011269  -0.046299   0.032692  -0.016368   0.032640  -0.005524
     7  N    0.033302   0.052623   0.042365   0.012439  -0.005294  -0.000906
     8  N   -0.017196   0.005891   0.018160  -0.011826  -0.001549   0.001425
     9  C    0.000661   0.022411  -0.008727  -0.040339  -0.001374  -0.001371
    10  H    0.000255   0.005444   0.000423   0.017034   0.003681  -0.000330
    11  H   -0.000013   0.007787  -0.002289   0.003484   0.000802   0.000043
    12  H    0.000108  -0.026006  -0.002608   0.019074  -0.012540  -0.001054
    13  C    0.107493  -0.092813   0.012190   0.026965   0.011114   0.003129
    14  H   -0.101918  -0.003526   0.010426   0.002245   0.003822   0.000287
    15  H   -0.096212   0.038911  -0.037284  -0.010178  -0.002466   0.000864
    16  C    0.187562   0.012353  -0.022198   0.002031   0.000574   0.002145
    17  H   -0.385967   0.002384   0.011479  -0.000275   0.001556   0.000726
    18  H   -0.313152  -0.035526  -0.019138   0.009228   0.008983  -0.000580
    19  H    1.877322   0.007340  -0.002218  -0.001474   0.000929  -0.000134
    20  C    0.007340   5.613958  -0.082472   0.140518  -0.025961   0.036486
    21  O   -0.002218  -0.082472   8.835140   0.003258  -0.056094   0.063080
    22  O   -0.001474   0.140518   0.003258   8.830247  -0.198495   0.010310
    23  C    0.000929  -0.025961  -0.056094  -0.198495   4.782288   0.229990
    24  H   -0.000134   0.036486   0.063080   0.010310   0.229990   1.144148
    25  H    0.000039  -0.112277   0.068526  -0.055679   0.416331  -0.135393
    26  H    0.000096   0.489795  -0.244485   0.039202  -0.191974  -0.190448
    27  H   -0.000270   0.006891  -0.003217  -0.028559   0.000745  -0.001197
    28  O    0.003847   0.000498   0.009939  -0.015125  -0.002218   0.000947
    29  H   -0.001502  -0.042324   0.013259   0.083386  -0.007781   0.013634
              25         26         27         28         29
     1  C   -0.000323   0.000074  -0.006097  -0.026746   0.023991
     2  H   -0.000056   0.000017  -0.002992   0.015442   0.006329
     3  C    0.000656   0.000613  -0.006351   0.088643   0.030654
     4  H    0.000010  -0.000016   0.000057   0.000776  -0.000257
     5  C    0.002456   0.000760   0.042449  -0.253972  -0.174702
     6  H    0.005433  -0.001528   0.008005   0.012407   0.009663
     7  N   -0.002612   0.002460  -0.007073   0.045469   0.023807
     8  N    0.000387  -0.002047   0.021066  -0.044676   0.013304
     9  C    0.005498   0.000621   0.003524   0.002450  -0.004794
    10  H    0.001428  -0.000121   0.002874  -0.022887   0.005335
    11  H    0.000153   0.000298   0.003894  -0.002475  -0.021998
    12  H   -0.003270   0.000604  -0.008507   0.033373   0.023161
    13  C    0.003814  -0.009135  -0.001537   0.040428   0.000391
    14  H    0.000371  -0.000499  -0.000201  -0.000625  -0.002046
    15  H    0.000374  -0.000810   0.000862  -0.000088  -0.002952
    16  C   -0.001059   0.000355  -0.002771  -0.007921   0.001885
    17  H   -0.000095  -0.000188  -0.001984   0.000284   0.008108
    18  H   -0.002054   0.002519  -0.000287  -0.018809  -0.013630
    19  H    0.000039   0.000096  -0.000270   0.003847  -0.001502
    20  C   -0.112277   0.489795   0.006891   0.000498  -0.042324
    21  O    0.068526  -0.244485  -0.003217   0.009939   0.013259
    22  O   -0.055679   0.039202  -0.028559  -0.015125   0.083386
    23  C    0.416331  -0.191974   0.000745  -0.002218  -0.007781
    24  H   -0.135393  -0.190448  -0.001197   0.000947   0.013634
    25  H    1.289082  -0.272789   0.002109   0.000183  -0.017181
    26  H   -0.272789   1.700536  -0.000749   0.000820   0.002830
    27  H    0.002109  -0.000749   0.729566   0.287483  -0.183757
    28  O    0.000183   0.000820   0.287483   8.018241   0.322964
    29  H   -0.017181   0.002830  -0.183757   0.322964   0.591888
 Mulliken charges:
               1
     1  C    0.636407
     2  H   -0.660920
     3  C    0.934200
     4  H   -0.601026
     5  C    0.387609
     6  H   -0.853249
     7  N    0.253136
     8  N    0.103570
     9  C    1.422967
    10  H   -0.247655
    11  H   -0.253606
    12  H   -0.415207
    13  C    1.118430
    14  H   -0.609159
    15  H   -0.444155
    16  C    1.012116
    17  H   -0.278631
    18  H   -0.264620
    19  H   -0.279831
    20  C    0.091668
    21  O   -0.575419
    22  O   -0.806110
    23  C    1.064535
    24  H   -0.169885
    25  H   -0.194060
    26  H   -0.326811
    27  H    0.146022
    28  O   -0.488653
    29  H    0.298338
 Sum of Mulliken charges =   0.00000
 Mulliken charges with hydrogens summed into heavy atoms:
               1
     1  C   -0.024513
     3  C    0.333173
     5  C   -0.465639
     7  N    0.253136
     8  N    0.103570
     9  C    0.506498
    13  C    0.065115
    16  C    0.189034
    20  C    0.091668
    21  O   -0.575419
    22  O   -0.806110
    23  C    0.373779
    28  O   -0.044293
 APT charges:
               1
     1  C    0.019838
     2  H    0.111932
     3  C    0.012921
     4  H    0.111358
     5  C    0.257840
     6  H    0.275786
     7  N   -0.356844
     8  N   -0.338575
     9  C    0.273898
    10  H    0.030372
    11  H   -0.004552
    12  H    0.101409
    13  C    0.369755
    14  H   -0.026597
    15  H    0.051868
    16  C   -0.010180
    17  H   -0.007525
    18  H    0.054998
    19  H    0.000520
    20  C    1.241952
    21  O   -1.006111
    22  O   -1.096151
    23  C   -0.088651
    24  H    0.000372
    25  H   -0.000261
    26  H   -0.005908
    27  H    0.229252
    28  O   -0.690612
    29  H    0.487894
 Sum of APT charges =   0.00000
 APT charges with hydrogens summed into heavy atoms:
               1
     1  C    0.131770
     3  C    0.124279
     5  C    0.533627
     7  N   -0.356844
     8  N   -0.338575
     9  C    0.401127
    13  C    0.395027
    16  C    0.037813
    20  C    1.241952
    21  O   -1.006111
    22  O   -1.096151
    23  C   -0.094448
    28  O    0.026533
 Electronic spatial extent (au):  <R**2>=           2712.0181
 Charge=              0.0000 electrons
 Dipole moment (field-independent basis, Debye):
    X=              6.8229    Y=             -0.4429    Z=             -0.7559  Tot=              6.8789
 Quadrupole moment (field-independent basis, Debye-Ang):
   XX=            -76.4226   YY=            -71.3543   ZZ=            -78.1626
   XY=             -0.1004   XZ=             -2.0015   YZ=              2.8734
 Traceless Quadrupole moment (field-independent basis, Debye-Ang):
   XX=             -1.1094   YY=              3.9588   ZZ=             -2.8494
   XY=             -0.1004   XZ=             -2.0015   YZ=              2.8734
 Octapole moment (field-independent basis, Debye-Ang**2):
  XXX=             38.8115  YYY=            -11.8611  ZZZ=             21.6362  XYY=             28.7714
  XXY=             -2.2867  XXZ=             10.8363  XZZ=             -9.5426  YZZ=             -3.3615
  YYZ=             -4.3838  XYZ=             -5.4250
 Hexadecapole moment (field-independent basis, Debye-Ang**3):
 XXXX=          -1981.2976 YYYY=          -1084.4950 ZZZZ=           -328.7792 XXXY=             -5.3721
 XXXZ=             24.9915 YYYX=            -19.9504 YYYZ=             -0.9428 ZZZX=            -18.1634
 ZZZY=            -14.8555 XXYY=           -528.5271 XXZZ=           -419.2193 YYZZ=           -258.5706
 XXYZ=              4.4513 YYXZ=             -2.6442 ZZXY=              5.3035
 N-N= 8.810607828513D+02 E-N=-3.278796021292D+03  KE= 6.454762167701D+02
  Exact polarizability: 144.307  -0.605 142.896   5.281  -1.556 101.463
 Approx polarizability: 156.146   0.559 170.602   8.935  -5.367 129.011
 Calling FoFJK, ICntrl=    100127 FMM=F ISym2X=0 I1Cent= 0 IOpClX= 0 NMat=1 NMatS=1 NMatT=0.
 Full mass-weighted force constant matrix:
 Low frequencies ---   -3.9604   -1.9514    0.0005    0.0007    0.0013    7.4914
 Low frequencies ---   41.9199   42.3473   46.7723
 Diagonal vibrational polarizability:
       96.8677923     112.3313514     121.6564857
 Harmonic frequencies (cm**-1), IR intensities (KM/Mole), Raman scattering
 activities (A**4/AMU), depolarization ratios for plane and unpolarized
 incident light, reduced masses (AMU), force constants (mDyne/A),
 and normal coordinates:
                      1                      2                      3
                      A                      A                      A
 Frequencies --     41.9096                42.2860                46.7596
 Red. masses --      3.0015                 3.8536                 3.2487
 Frc consts  --      0.0031                 0.0041                 0.0042
 IR Inten    --      2.3256                 1.7620                 4.8457
  Atom  AN      X      Y      Z        X      Y      Z        X      Y      Z
     1   6     0.04  -0.02  -0.12    -0.02  -0.06  -0.02    -0.13  -0.03   0.11
     2   1     0.06  -0.03  -0.20    -0.05  -0.09  -0.04    -0.17  -0.04   0.19
     3   6     0.07  -0.02  -0.13     0.02  -0.06   0.03    -0.11  -0.03   0.14
     4   1     0.11  -0.04  -0.21     0.05  -0.09   0.06    -0.14  -0.05   0.25
     5   6    -0.02   0.02   0.07     0.01   0.04   0.00    -0.03  -0.01  -0.10
     6   1    -0.05   0.05   0.17     0.01   0.11   0.00     0.01   0.00  -0.22
     7   7     0.03   0.01  -0.01     0.04   0.00   0.03    -0.05  -0.02   0.01
     8   7    -0.01   0.01   0.01    -0.03   0.00  -0.04    -0.07  -0.02  -0.04
     9   6    -0.04   0.02   0.06    -0.08   0.02  -0.09    -0.08  -0.01  -0.12
    10   1     0.01   0.03   0.05    -0.01  -0.07  -0.15    -0.11  -0.06  -0.13
    11   1    -0.10   0.00   0.04    -0.17   0.07  -0.18    -0.07   0.02  -0.13
    12   1    -0.04   0.04   0.12    -0.08   0.07   0.01    -0.08   0.00  -0.13
    13   6     0.04   0.01   0.04     0.07   0.01   0.10    -0.01   0.00  -0.03
    14   1     0.03   0.01   0.03     0.12   0.03   0.22     0.00  -0.04  -0.06
    15   1     0.02   0.04   0.07     0.14   0.08   0.01    -0.02  -0.01  -0.02
    16   6     0.10  -0.02   0.07    -0.06  -0.09   0.10     0.02   0.05  -0.04
    17   1     0.12  -0.05   0.04    -0.13  -0.18   0.18     0.02   0.06  -0.05
    18   1     0.11  -0.02   0.08    -0.11  -0.10  -0.03     0.01   0.08  -0.01
    19   1     0.11  -0.02   0.11    -0.02  -0.07   0.15     0.04   0.06  -0.08
    20   6    -0.05  -0.03   0.01    -0.01  -0.03  -0.04     0.07   0.00   0.03
    21   8    -0.04   0.00   0.10    -0.06  -0.08  -0.24     0.03   0.05   0.10
    22   8    -0.06   0.00   0.08     0.04   0.06   0.11     0.12   0.01   0.01
    23   6    -0.03  -0.12  -0.22    -0.02  -0.08   0.05     0.08  -0.11  -0.06
    24   1    -0.20  -0.41  -0.28     0.04   0.24   0.07     0.01  -0.48  -0.08
    25   1     0.12  -0.02  -0.51    -0.04  -0.23   0.36     0.20   0.01  -0.38
    26   1    -0.01  -0.02  -0.07    -0.06  -0.25  -0.20     0.03   0.02   0.18
    27   1     0.02   0.12   0.02     0.13   0.15   0.03     0.11   0.16   0.00
    28   8    -0.02   0.11   0.01     0.09   0.20   0.01     0.11   0.10   0.00
    29   1    -0.04   0.07   0.04     0.07   0.15   0.05     0.11   0.07   0.01
                      4                      5                      6
                      A                      A                      A
 Frequencies --     56.6966                63.0593                79.3950
 Red. masses --      1.2978                 6.5155                 3.7075
 Frc consts  --      0.0025                 0.0153                 0.0138
 IR Inten    --      1.6371                 0.5358                 5.7156
  Atom  AN      X      Y      Z        X      Y      Z        X      Y      Z
     1   6    -0.02   0.00   0.00    -0.02   0.02  -0.02    -0.04  -0.02   0.02
     2   1    -0.02   0.00   0.01    -0.02   0.02  -0.02    -0.10  -0.07   0.02
     3   6    -0.02   0.00   0.00    -0.02   0.02  -0.03     0.05  -0.03   0.01
     4   1    -0.02   0.00   0.01    -0.02   0.02  -0.05     0.11  -0.08   0.00
     5   6    -0.01   0.00  -0.01    -0.04   0.01   0.01     0.00   0.11   0.02
     6   1    -0.01  -0.01  -0.02    -0.04   0.02   0.01     0.00   0.19   0.04
     7   7    -0.02   0.00   0.00    -0.03   0.01  -0.01     0.08   0.06   0.01
     8   7    -0.01   0.00  -0.01    -0.03   0.01   0.00    -0.07   0.07   0.02
     9   6    -0.01   0.00  -0.01    -0.04   0.02   0.04    -0.14   0.09   0.00
    10   1    -0.03   0.00   0.00     0.00   0.03   0.03    -0.33   0.15   0.07
    11   1     0.01  -0.01   0.00    -0.08   0.01   0.02    -0.02   0.03   0.11
    12   1    -0.01  -0.01  -0.03    -0.04   0.02   0.09    -0.12   0.14  -0.19
    13   6    -0.01   0.00  -0.01    -0.03   0.02  -0.03     0.18   0.08  -0.04
    14   1    -0.03  -0.01  -0.04     0.00   0.01   0.03     0.25   0.02   0.00
    15   1    -0.04  -0.01   0.03     0.01   0.03  -0.08     0.23   0.13  -0.10
    16   6     0.04   0.02   0.00    -0.11   0.01  -0.05     0.12   0.15  -0.08
    17   1     0.07   0.04  -0.03    -0.16  -0.03   0.01     0.05   0.05  -0.01
    18   1     0.05   0.03   0.04    -0.17   0.05  -0.12     0.01   0.25  -0.14
    19   1     0.04   0.02   0.00    -0.06   0.03  -0.06     0.25   0.19  -0.11
    20   6     0.01  -0.01   0.00     0.02   0.09   0.00    -0.03  -0.08  -0.01
    21   8     0.01   0.02   0.10     0.00   0.05  -0.13    -0.08  -0.05  -0.02
    22   8     0.01  -0.02   0.00     0.03   0.20   0.25     0.03  -0.07  -0.06
    23   6     0.02  -0.03  -0.08     0.03  -0.03  -0.19    -0.03  -0.13   0.08
    24   1    -0.02   0.56  -0.09    -0.11  -0.05  -0.25     0.03  -0.10   0.10
    25   1     0.00  -0.27   0.42     0.17  -0.07  -0.22    -0.03  -0.16   0.13
    26   1     0.07  -0.29  -0.54     0.03  -0.08  -0.27    -0.10  -0.16   0.07
    27   1     0.01   0.02   0.00     0.27  -0.34   0.15    -0.10  -0.11   0.03
    28   8     0.01   0.00   0.00     0.20  -0.36   0.13    -0.05  -0.13   0.05
    29   1     0.01   0.00   0.00     0.14  -0.09   0.17    -0.02  -0.10   0.01
                      7                      8                      9
                      A                      A                      A
 Frequencies --     98.8097               104.4276               122.0215
 Red. masses --      1.3852                 2.3097                 3.9182
 Frc consts  --      0.0080                 0.0148                 0.0344
 IR Inten    --      1.1628                 3.0408                 5.2299
  Atom  AN      X      Y      Z        X      Y      Z        X      Y      Z
     1   6     0.01   0.01   0.02    -0.02   0.03   0.01     0.00   0.01   0.02
     2   1     0.01   0.01   0.02    -0.01   0.05   0.03    -0.01   0.00   0.03
     3   6     0.00   0.01   0.03    -0.05   0.03   0.01    -0.02   0.01   0.09
     4   1    -0.01   0.01   0.04    -0.08   0.05   0.03    -0.03   0.00   0.14
     5   6     0.00   0.00   0.02    -0.03  -0.02  -0.03     0.02   0.02  -0.02
     6   1     0.00   0.00   0.02    -0.02  -0.05  -0.05     0.02   0.04  -0.03
     7   7     0.00   0.00   0.02    -0.06   0.00  -0.01     0.00   0.02   0.05
     8   7     0.01   0.00   0.02     0.00   0.00  -0.01     0.03   0.01  -0.06
     9   6     0.03  -0.01  -0.08     0.02  -0.01   0.03     0.01   0.02  -0.06
    10   1     0.46  -0.28  -0.30    -0.14   0.10   0.12    -0.35   0.18   0.09
    11   1    -0.32   0.20  -0.42     0.17  -0.09   0.17     0.30  -0.10   0.18
    12   1    -0.01   0.02   0.41     0.03  -0.05  -0.16     0.05  -0.01  -0.46
    13   6     0.00   0.00  -0.02    -0.09  -0.01   0.02     0.02   0.02   0.00
    14   1    -0.02  -0.02  -0.09    -0.21  -0.01  -0.20     0.04  -0.01  -0.01
    15   1    -0.03  -0.03   0.02    -0.26  -0.08   0.23     0.04   0.01  -0.01
    16   6     0.07   0.08  -0.03     0.23   0.03   0.10     0.01   0.10  -0.03
    17   1     0.11   0.12  -0.07     0.41   0.13  -0.11     0.00   0.10  -0.01
    18   1     0.09   0.09   0.05     0.37  -0.02   0.35    -0.02   0.14  -0.01
    19   1     0.06   0.07  -0.07     0.13   0.00   0.15     0.06   0.11  -0.08
    20   6    -0.02  -0.02   0.00     0.00   0.00  -0.04    -0.03  -0.07   0.06
    21   8     0.00  -0.04  -0.02    -0.03  -0.02  -0.13     0.11  -0.17  -0.01
    22   8    -0.05  -0.02   0.04     0.02   0.03   0.00    -0.18  -0.08   0.20
    23   6    -0.02   0.01  -0.01    -0.01  -0.03   0.02    -0.03   0.11  -0.05
    24   1    -0.03   0.01  -0.01     0.03  -0.06   0.03    -0.12   0.09  -0.09
    25   1    -0.03   0.02  -0.02     0.00  -0.03   0.01    -0.10   0.18  -0.14
    26   1     0.00   0.02  -0.01    -0.05  -0.03   0.04     0.12   0.18  -0.04
    27   1    -0.02  -0.08   0.03     0.00  -0.11   0.01     0.15   0.08  -0.13
    28   8    -0.03  -0.01   0.02     0.01  -0.01   0.01     0.05   0.00  -0.16
    29   1    -0.03  -0.01   0.03     0.01   0.01   0.00    -0.03  -0.05  -0.07
                     10                     11                     12
                      A                      A                      A
 Frequencies --    143.8512               155.2295               181.9265
 Red. masses --      4.4053                 3.5072                 2.4632
 Frc consts  --      0.0537                 0.0498                 0.0480
 IR Inten    --     12.7451                 7.1740                19.8070
  Atom  AN      X      Y      Z        X      Y      Z        X      Y      Z
     1   6     0.09  -0.06  -0.04    -0.03   0.03   0.13    -0.01  -0.01  -0.08
     2   1     0.13  -0.06  -0.14    -0.08   0.04   0.24     0.03   0.00  -0.16
     3   6     0.03  -0.05   0.07     0.00   0.02   0.06    -0.04   0.00  -0.04
     4   1     0.02  -0.04   0.07    -0.02   0.03   0.10    -0.03   0.00  -0.08
     5   6     0.02  -0.07   0.12     0.05   0.02  -0.08    -0.08  -0.02   0.08
     6   1     0.00  -0.09   0.16     0.05   0.01  -0.11    -0.08  -0.02   0.11
     7   7    -0.01  -0.06   0.16     0.05   0.02  -0.07    -0.09  -0.01   0.07
     8   7     0.08  -0.07  -0.01     0.01   0.02   0.03    -0.04  -0.02   0.00
     9   6     0.13  -0.09  -0.08    -0.03   0.04   0.16    -0.04  -0.02   0.10
    10   1    -0.04  -0.05  -0.02     0.26   0.00   0.08     0.11   0.00   0.08
    11   1     0.31  -0.10   0.02    -0.32   0.05   0.02    -0.16  -0.03   0.05
    12   1     0.15  -0.15  -0.28    -0.06   0.09   0.51    -0.05  -0.02   0.26
    13   6     0.02  -0.06   0.02     0.04   0.01  -0.01    -0.04   0.01   0.06
    14   1     0.04  -0.13  -0.04     0.02   0.05   0.02     0.00  -0.04   0.05
    15   1     0.03  -0.11   0.00     0.03   0.04   0.00    -0.03   0.05   0.05
    16   6    -0.01   0.16  -0.06     0.05  -0.10   0.03    -0.01   0.11   0.04
    17   1    -0.06   0.14   0.00     0.06  -0.18   0.02    -0.10  -0.24   0.12
    18   1    -0.11   0.31  -0.04     0.04  -0.12  -0.02    -0.29   0.40  -0.07
    19   1     0.13   0.19  -0.22     0.06  -0.09   0.13     0.40   0.25   0.04
    20   6    -0.10   0.08   0.00    -0.06   0.01   0.00     0.04  -0.03  -0.05
    21   8    -0.20   0.14   0.01    -0.09   0.03   0.03     0.06  -0.04  -0.04
    22   8     0.00   0.11  -0.03    -0.04   0.01  -0.02     0.02  -0.07  -0.11
    23   6    -0.11  -0.08   0.02    -0.07  -0.03   0.01     0.04   0.05  -0.01
    24   1    -0.09  -0.09   0.03    -0.06  -0.03   0.02     0.07   0.06   0.01
    25   1    -0.02  -0.14   0.06    -0.04  -0.05   0.04    -0.04   0.08  -0.01
    26   1    -0.21  -0.14   0.00    -0.10  -0.05   0.00     0.07   0.09   0.02
    27   1     0.13   0.06  -0.09     0.22   0.17  -0.23     0.17   0.28  -0.02
    28   8     0.06   0.01  -0.12     0.12  -0.07  -0.26     0.12   0.00  -0.03
    29   1     0.01   0.06  -0.06     0.04  -0.01  -0.16     0.10  -0.02   0.03
                     13                     14                     15
                      A                      A                      A
 Frequencies --    196.3123               221.0339               233.2067
 Red. masses --      1.4410                 1.3850                 2.4492
 Frc consts  --      0.0327                 0.0399                 0.0785
 IR Inten    --      8.3166                52.7947                51.2907
  Atom  AN      X      Y      Z        X      Y      Z        X      Y      Z
     1   6     0.01  -0.03  -0.04     0.00   0.00  -0.02     0.01  -0.01  -0.05
     2   1     0.01  -0.05  -0.09     0.00   0.00  -0.03     0.02  -0.02  -0.08
     3   6     0.03  -0.03   0.00    -0.02   0.00   0.01     0.00  -0.01   0.00
     4   1     0.06  -0.06  -0.01    -0.03   0.00   0.03     0.00  -0.02   0.00
     5   6     0.00   0.02   0.05    -0.01  -0.01  -0.02    -0.01   0.00   0.00
     6   1     0.00   0.05   0.07     0.00  -0.01  -0.04     0.00   0.00  -0.01
     7   7     0.02   0.00   0.06    -0.02   0.00   0.01    -0.02   0.00   0.03
     8   7    -0.01   0.00   0.00     0.00  -0.01  -0.03     0.00  -0.01  -0.04
     9   6    -0.08   0.03   0.04     0.00   0.00   0.05    -0.02   0.00   0.03
    10   1    -0.05   0.03   0.03     0.06   0.04   0.06     0.06   0.01   0.02
    11   1    -0.16   0.00   0.02    -0.06  -0.04   0.05    -0.11  -0.02   0.00
    12   1    -0.08   0.09   0.10    -0.01   0.00   0.12    -0.03   0.02   0.13
    13   6    -0.03  -0.01   0.02     0.01   0.01   0.01    -0.02   0.00   0.03
    14   1    -0.07   0.01  -0.03     0.04  -0.02   0.03    -0.02  -0.01   0.02
    15   1    -0.04  -0.09   0.03     0.03   0.04  -0.01    -0.02  -0.01   0.03
    16   6    -0.05   0.05  -0.01    -0.01   0.02   0.00    -0.02   0.05   0.01
    17   1     0.05   0.56  -0.10    -0.06  -0.13   0.05    -0.01   0.11   0.01
    18   1     0.26  -0.23   0.20    -0.12   0.14  -0.06     0.00   0.04   0.05
    19   1    -0.52  -0.12  -0.16     0.17   0.08   0.01    -0.05   0.03  -0.04
    20   6     0.02  -0.01  -0.02     0.03   0.01   0.02     0.07   0.02   0.03
    21   8     0.02  -0.01  -0.01     0.02   0.00   0.00     0.05   0.01  -0.03
    22   8     0.02  -0.02  -0.04     0.04   0.02   0.04     0.08   0.06   0.10
    23   6     0.02   0.01   0.00     0.04  -0.03   0.01     0.09  -0.07   0.03
    24   1     0.03   0.01   0.00     0.03  -0.04   0.01     0.09  -0.09   0.04
    25   1     0.00   0.01   0.00     0.07  -0.04   0.01     0.16  -0.11   0.05
    26   1     0.02   0.01   0.01     0.01  -0.05   0.00     0.01  -0.11   0.02
    27   1     0.10  -0.23  -0.02    -0.05  -0.90  -0.01    -0.24   0.78  -0.19
    28   8     0.05   0.01  -0.05    -0.07   0.04  -0.08    -0.18  -0.07  -0.11
    29   1     0.03   0.00  -0.02    -0.06   0.04  -0.11    -0.18  -0.05  -0.15
                     16                     17                     18
                      A                      A                      A
 Frequencies --    276.0796               300.9884               402.9266
 Red. masses --      4.0136                 2.1180                 2.9506
 Frc consts  --      0.1802                 0.1130                 0.2822
 IR Inten    --      7.0102                 2.0001                 1.3472
  Atom  AN      X      Y      Z        X      Y      Z        X      Y      Z
     1   6    -0.06   0.03   0.10    -0.08   0.00  -0.03     0.08   0.08  -0.07
     2   1    -0.05   0.04   0.09    -0.09  -0.01  -0.02     0.19   0.14  -0.19
     3   6     0.01   0.02  -0.13    -0.08  -0.01  -0.01    -0.10   0.09   0.10
     4   1     0.09   0.02  -0.34    -0.09  -0.01   0.01    -0.19   0.18   0.13
     5   6    -0.11   0.01   0.22    -0.09   0.01  -0.04    -0.06  -0.04   0.12
     6   1    -0.11   0.03   0.26    -0.08   0.02  -0.06    -0.07  -0.12   0.14
     7   7    -0.02   0.01  -0.04    -0.06   0.00  -0.01    -0.13  -0.02   0.12
     8   7    -0.12   0.03   0.28    -0.07   0.00  -0.04     0.07   0.00  -0.04
     9   6     0.03  -0.03  -0.12     0.15  -0.09   0.06    -0.07   0.07  -0.02
    10   1    -0.13  -0.26  -0.19     0.30   0.01   0.07    -0.15   0.04  -0.01
    11   1     0.28   0.22  -0.19     0.23  -0.06   0.07    -0.17   0.00  -0.02
    12   1     0.04  -0.14  -0.34     0.12  -0.30   0.10    -0.05   0.23  -0.02
    13   6     0.00   0.01  -0.03     0.16   0.08   0.04     0.09   0.00  -0.10
    14   1     0.02   0.01   0.00     0.35  -0.03   0.23     0.26  -0.15   0.01
    15   1     0.01   0.05  -0.04     0.28   0.30  -0.12     0.18   0.13  -0.22
    16   6     0.02  -0.06  -0.01     0.02   0.02   0.02     0.08  -0.15  -0.09
    17   1     0.03  -0.09  -0.03     0.02   0.29   0.04     0.12  -0.20  -0.14
    18   1     0.04  -0.10  -0.02     0.18  -0.19   0.02     0.18  -0.32  -0.16
    19   1    -0.01  -0.06   0.07    -0.28  -0.08  -0.04    -0.05  -0.18   0.13
    20   6     0.05   0.01   0.00     0.00   0.00   0.00     0.01   0.01  -0.01
    21   8     0.04   0.00  -0.02     0.00   0.00  -0.01     0.02   0.00   0.00
    22   8     0.05   0.01   0.01    -0.01  -0.01   0.00     0.00   0.00  -0.01
    23   6     0.06  -0.01   0.01    -0.01   0.01   0.00     0.01  -0.01   0.01
    24   1     0.06  -0.01   0.01    -0.01   0.01   0.00     0.03  -0.02   0.01
    25   1     0.07  -0.01   0.01    -0.01   0.01   0.00     0.03  -0.03   0.02
    26   1     0.04  -0.02   0.01     0.00   0.01   0.00    -0.02  -0.03   0.01
    27   1     0.07  -0.17  -0.13     0.00   0.04   0.00     0.12   0.03   0.04
    28   8     0.01   0.00  -0.16     0.01   0.00   0.01    -0.01   0.00  -0.01
    29   1    -0.02  -0.04  -0.12     0.01  -0.01   0.01    -0.06  -0.02   0.08
                     19                     20                     21
                      A                      A                      A
 Frequencies --    424.7564               464.0346               501.9177
 Red. masses --      2.6648                 3.0042                 1.1155
 Frc consts  --      0.2833                 0.3811                 0.1656
 IR Inten    --      1.8024                12.4678                72.3037
  Atom  AN      X      Y      Z        X      Y      Z        X      Y      Z
     1   6    -0.08  -0.06  -0.08    -0.02  -0.02   0.00     0.01   0.00  -0.02
     2   1    -0.15  -0.18  -0.18    -0.04  -0.04  -0.01     0.02   0.01  -0.03
     3   6     0.04  -0.06   0.11     0.01  -0.02   0.01     0.00   0.00   0.00
     4   1     0.10  -0.17   0.19     0.03  -0.04   0.02    -0.01   0.01   0.01
     5   6    -0.04   0.14   0.06     0.00   0.03   0.00     0.00   0.00   0.00
     6   1    -0.04   0.31   0.10    -0.01   0.06   0.02     0.00   0.01  -0.02
     7   7     0.07   0.05   0.09     0.02   0.01   0.00    -0.01   0.00   0.02
     8   7    -0.10   0.08  -0.06    -0.02   0.01  -0.01     0.00   0.00   0.01
     9   6     0.11   0.01   0.04     0.03   0.00   0.00    -0.01   0.00   0.00
    10   1     0.28   0.12   0.05     0.05   0.02   0.01     0.00  -0.01   0.00
    11   1     0.20   0.04   0.06     0.06   0.01   0.02    -0.02   0.01  -0.01
    12   1     0.08  -0.23   0.10     0.02  -0.06   0.00    -0.01   0.00   0.01
    13   6    -0.07  -0.03  -0.10    -0.02   0.00  -0.01     0.00   0.00  -0.01
    14   1    -0.22   0.06  -0.26    -0.05   0.03  -0.04     0.01  -0.01  -0.01
    15   1    -0.15  -0.26   0.01    -0.04  -0.04   0.02     0.00   0.00  -0.01
    16   6     0.02  -0.10  -0.07     0.00  -0.01   0.00     0.00  -0.01  -0.01
    17   1     0.06  -0.27  -0.13     0.00  -0.03  -0.01     0.01  -0.02  -0.01
    18   1     0.02  -0.12  -0.11    -0.01   0.00  -0.01     0.01  -0.02  -0.01
    19   1     0.08  -0.07   0.12     0.01   0.00   0.01     0.00  -0.01   0.01
    20   6     0.01  -0.02   0.01     0.00   0.12  -0.07    -0.01   0.01   0.00
    21   8    -0.02  -0.01   0.00     0.20   0.04   0.00     0.03   0.00   0.00
    22   8     0.04  -0.01   0.01    -0.22   0.03  -0.05    -0.03   0.01   0.00
    23   6     0.01   0.03  -0.01     0.00  -0.15   0.06    -0.01  -0.01   0.00
    24   1    -0.02   0.05  -0.02     0.21  -0.29   0.14    -0.01  -0.03   0.01
    25   1    -0.03   0.06  -0.03     0.29  -0.32   0.20     0.02  -0.03   0.01
    26   1     0.09   0.06  -0.01    -0.48  -0.33   0.09    -0.06  -0.03   0.00
    27   1     0.00   0.01  -0.01     0.23   0.00   0.10    -0.73  -0.03  -0.27
    28   8    -0.01   0.00  -0.01     0.01   0.01   0.02     0.06   0.00   0.02
    29   1    -0.01  -0.02   0.00    -0.08   0.00   0.17     0.40   0.01  -0.47
                     22                     23                     24
                      A                      A                      A
 Frequencies --    616.4125               621.6632               644.6892
 Red. masses --      3.4662                 2.3511                 3.2087
 Frc consts  --      0.7760                 0.5353                 0.7858
 IR Inten    --      1.0166                 7.5964                 7.9723
  Atom  AN      X      Y      Z        X      Y      Z        X      Y      Z
     1   6    -0.05   0.03   0.06     0.01  -0.01  -0.01    -0.08  -0.01   0.21
     2   1    -0.16  -0.03   0.15     0.05   0.01  -0.04    -0.22   0.03   0.58
     3   6     0.01   0.00  -0.08     0.00   0.00   0.03     0.06  -0.02  -0.14
     4   1    -0.03   0.10  -0.19     0.01  -0.03   0.06     0.17  -0.06  -0.35
     5   6    -0.09   0.01  -0.05     0.02   0.00   0.01    -0.02   0.01   0.14
     6   1    -0.10   0.04   0.00     0.00   0.00   0.06    -0.08   0.01   0.32
     7   7    -0.04  -0.11   0.05     0.01   0.03  -0.02    -0.03   0.03   0.08
     8   7     0.00   0.11  -0.04     0.00  -0.03   0.01     0.09  -0.05  -0.25
     9   6     0.08   0.23  -0.01    -0.02  -0.06   0.00     0.00  -0.03  -0.02
    10   1     0.11   0.25   0.00    -0.02  -0.07   0.00     0.06   0.13   0.04
    11   1     0.07   0.20   0.01    -0.03  -0.06   0.00    -0.12  -0.21   0.05
    12   1     0.07   0.17   0.02    -0.02  -0.04  -0.01     0.00   0.02   0.06
    13   6     0.06  -0.27   0.09    -0.02   0.07  -0.02    -0.03   0.08  -0.04
    14   1     0.07  -0.29   0.10    -0.02   0.08  -0.02     0.00   0.03  -0.04
    15   1     0.08  -0.20   0.07    -0.02   0.06  -0.02    -0.01   0.06  -0.06
    16   6     0.02  -0.04  -0.02    -0.01   0.01   0.01     0.00   0.00  -0.01
    17   1    -0.04   0.15   0.06     0.01  -0.04  -0.01     0.04  -0.10  -0.06
    18   1    -0.07   0.14   0.10     0.02  -0.03  -0.02     0.05  -0.08  -0.04
[...]
 0.00003484,-0.00004021,-0.00001993,0.00000704,-0.00001543,0.00007902,-
 0.00014081,0.00000037,-0.00003328,-0.00002087,-0.18597288,-0.02175611,
 0.00478429,-0.01812654,-0.01896036,-0.00120278,-0.03807840,0.00799345,
 0.01322611,0.47851399,-0.00023626,0.00003478,0.00011164,-0.00001780,-0
 .00001803,0.00001838,-0.00001688,0.00004372,-0.00001156,-0.00000995,0.
 00000465,-0.00000315,-0.00063567,0.00030808,-0.00032852,0.00093268,-0.
 00073152,0.00003336,0.00007000,0.00009639,0.00005975,-0.00026999,-0.00
 015016,0.00013870,0.00005333,-0.00015315,0.00001378,-0.00003912,0.0000
 4044,-0.00001062,0.00006342,0.00003871,0.00002094,-0.00000389,0.000070
 59,-0.00011718,0.00011298,-0.00012977,-0.00022717,-0.00012829,-0.00002
 241,0.00007228,0.00010523,0.00019272,0.00023804,-0.00004601,0.00004330
 ,-0.00004336,-0.00004155,-0.00004693,0.00002989,0.00005618,0.00001832,
 -0.00011340,0.00000057,-0.00001774,0.00001122,-0.01848848,-0.08024904,
 0.00870056,-0.04240069,-0.01545536,-0.01344293,0.03209775,0.00457012,-
 0.01123567,-0.03256839,0.59034496,-0.00000675,0.00005220,-0.00000217,0
 .00001186,0.00000739,0.00000621,0.00016797,0.00004631,-0.00012845,0.00
 001887,0.00000053,-0.00001252,0.00051432,-0.00022046,0.00042751,0.0000
 0144,-0.00003125,-0.00001010,0.00007989,0.00007382,-0.00003593,0.00000
 677,0.00014577,-0.00006753,0.00000119,-0.00018084,0.00014167,0.0000434
 2,-0.00000738,0.00000237,0.00008029,0.00002786,-0.00001460,-0.00009672
 ,0.00015432,-0.00011038,0.00014577,-0.00013957,0.00008197,-0.00006472,
 0.00002370,-0.00001801,0.00007708,0.00003954,0.00012246,-0.00003595,0.
 00003692,0.00017466,-0.00008571,-0.00008772,-0.00002843,-0.00000047,0.
 00003071,-0.00021431,-0.00003711,-0.00004030,-0.00003297,0.00799463,0.
 00921616,-0.08850169,-0.01101316,-0.01620328,0.01979924,0.02334240,-0.
 00718590,0.01261850,-0.01348856,0.02714967,0.54940751,-0.00003197,0.00
 000405,0.00002399,-0.00000163,-0.00000299,0.00000057,0.00000955,0.0000
 1283,-0.00001019,0.00000117,-0.00000052,-0.00000288,0.00014495,-0.0000
 1279,0.00005749,0.00016349,-0.00005179,0.00001959,0.00001066,0.0000020
 2,-0.00000682,-0.00003102,0.00003418,-0.00000603,0.00000760,-0.0000422
 6,0.00001765,-0.00000491,0.00000212,-0.00000454,0.00000613,0.00000456,
 0.00000040,0.00000735,0.00000089,-0.00001927,0.00004666,0.00000045,-0.
 00000602,-0.00003010,-0.00000531,0.00001401,0.00004185,0.00003495,0.00
 005996,-0.00000993,-0.00000923,0.00005028,-0.00003024,-0.00002397,-0.0
 0000122,-0.00001545,0.00002317,-0.00010135,-0.00000834,-0.00001627,-0.
 00001046,-0.00849551,0.00169196,-0.03474243,-0.00357168,-0.00377798,0.
 00394939,0.00033079,-0.00078329,0.00495295,-0.08132174,0.00036253,-0.0
 9692185,0.08574302,-0.00001002,0.00000087,0.00001036,-0.00000132,0.000
 00175,0.00000146,0.00000452,0.00000548,-0.00000729,-0.00000117,0.00000
 079,-0.00000233,0.00004192,0.00000084,0.00000523,0.00003469,-0.0000477
 1,0.00000072,0.00001704,-0.00001105,0.00000489,-0.00000834,0.00000557,
 -0.00000482,-0.00000732,-0.00001634,0.00000530,0.00001284,0.00000716,-
 0.00000087,0.00000176,0.00000471,-0.00000077,-0.00002263,0.00002891,0.
 00000982,0.00001927,0.00000513,-0.00001803,-0.00001023,-0.00000146,0.0
 0001257,0.00001779,0.00001384,0.00002463,-0.00001081,-0.00001048,0.000
 02507,-0.00000620,-0.00001099,0.00000312,-0.00001749,0.00002647,-0.000
 05079,-0.00000804,-0.00001514,-0.00000836,-0.00339504,-0.00183478,-0.0
 0819286,-0.00228062,-0.00171203,0.00205945,0.00148410,-0.00036765,-0.0
 0010741,-0.00112502,-0.03944208,-0.00943318,0.00331286,0.04175685,-0.0
 0002055,-0.00000461,0.00001626,-0.00000086,-0.00000326,-0.00000088,-0.
 00000784,0.00001214,0.00000596,0.00000016,-0.00000143,-0.00000101,-0.0
 0001398,0.00003791,-0.00004500,0.00010622,-0.00008940,-0.00000403,0.00
 001636,-0.00000215,0.00000398,-0.00002050,0.00000343,0.00000721,0.0000
 0124,-0.00002257,-0.00000832,-0.00000557,0.00000077,0.00000327,0.00000
 609,0.00000144,-0.00000088,0.00000145,0.00001290,-0.00001064,0.0000272
 3,0.00001504,-0.00001960,-0.00000939,-0.00000339,0.00000445,0.00001940
 ,0.00002008,0.00001162,0.00000746,0.00002118,0.00001193,-0.00000735,-0
 .00000589,0.00000329,0.00001614,0.00001826,-0.00001297,-0.00000078,-0.
 00000930,-0.00000627,0.00254943,-0.00157865,0.00155459,-0.00099772,0.0
 0095554,0.00034265,0.00017748,0.00030584,0.00056699,-0.09411941,-0.007
 70327,-0.28066112,0.10304129,0.00789609,0.30342461,-0.00008226,0.00000
 929,0.00004471,-0.00000636,-0.00000879,0.00000789,-0.00000713,0.000020
 86,0.00001237,-0.00000282,0.00000206,0.00000057,-0.00016014,0.00005881
 ,-0.00012102,0.00033200,-0.00026525,0.00008758,0.00001393,0.00003396,0
 .00001791,-0.00007101,0.00000466,0.00003400,-0.00004663,-0.00005757,-0
 .00003003,0.00000238,0.00001801,-0.00000045,-0.00001062,0.00001173,0.0
 0000779,-0.00000590,-0.00004975,0.00003302,0.00002879,-0.00004296,-0.0
 0007301,-0.00004048,-0.00000478,0.00002397,0.00003676,0.00005789,0.000
 06317,-0.00001315,0.00001093,-0.00000305,-0.00001094,-0.00001028,0.000
 00962,0.00001859,0.00002278,-0.00003587,-0.00000303,-0.00000542,-0.000
 00210,0.00164811,-0.03034081,0.01619176,-0.00719972,-0.00139535,-0.003
 96522,0.00054072,0.00276677,-0.00291824,-0.04751669,-0.02877309,0.0183
 7067,0.00111152,0.01170084,-0.00463045,0.05000937,-0.00005425,0.000007
 43,0.00003293,-0.00000157,-0.00000552,0.00000735,0.00000560,0.00001517
 ,0.00000445,0.00000190,0.00000039,0.00000404,-0.00005264,0.00002211,-0
 .00008343,0.00020951,-0.00016452,0.00005903,-0.00001077,0.00003378,0.0
 0000258,-0.00006699,0.00002516,0.00000758,-0.00001397,-0.00005752,-0.0
 0000635,0.00000063,0.00001042,-0.00000155,-0.00000852,0.00001220,-0.00
 000148,0.00001052,0.00000602,0.00001670,0.00004663,-0.00003148,-0.0000
 3132,-0.00002998,-0.00000262,0.00000851,0.00004237,0.00003387,0.000050
 89,-0.00000252,0.00001637,0.00001157,-0.00002155,-0.00001016,0.0000039
 3,0.00003750,0.00000925,-0.00004848,0.00000815,0.00000966,-0.00000299,
 0.00207654,-0.00870286,0.00100870,-0.00358076,0.00073048,-0.00013424,0
 .00118372,0.00184807,-0.00097884,-0.02992711,-0.27361340,0.10274575,0.
 00023930,0.00126272,-0.00135266,0.03357592,0.29416846,0.00001647,0.000
 00379,-0.00000982,0.00000149,0.00000068,0.00000106,0.00000020,-0.00000
 624,-0.00000121,0.00000047,0.00000067,-0.00000039,-0.00004535,0.000029
 84,-0.00001144,-0.00007947,-0.00001369,0.00001966,0.00001458,-0.000022
 31,0.00000510,0.00000102,-0.00002155,-0.00000116,0.00000236,0.00002085
 ,0.00000612,0.00001116,0.00000393,-0.00000601,0.00000175,-0.00000332,0
 .00000385,-0.00000521,0.00003635,0.00001898,-0.00002307,0.00000296,-0.
 00000245,0.00000624,-0.00000151,0.00000530,-0.00001453,-0.00001133,-0.
 00000643,-0.00000198,-0.00001399,-0.00000936,0.00001097,0.00000659,-0.
 00000079,-0.00002301,-0.00000323,0.00001164,-0.00000105,-0.00000027,0.
 00000239,-0.00335060,0.00026177,-0.00152514,-0.00083155,-0.00031682,0.
 00000099,0.00111226,-0.00141287,0.00000325,0.01751174,0.10061340,-0.08
 603347,0.00477576,0.02731719,-0.01177789,-0.01530982,-0.11089083,0.091
 25502,0.00006168,-0.00003346,-0.00001780,0.00000668,-0.00000079,0.,-0.
 00006681,-0.00002356,0.00005587,-0.00000002,0.00000500,0.00000739,0.00
 013741,0.00004961,0.00001810,-0.00011683,0.00021258,0.00013093,-0.0000
 2932,-0.00008573,-0.00004533,0.00004683,-0.00000136,-0.00003902,0.0000
 1583,0.00008097,-0.00003972,0.00000479,-0.00002142,0.00000821,-0.00005
 733,-0.00001875,-0.00000801,0.00012497,-0.00013221,0.00009538,-0.00008
 432,0.00009482,0.00005493,0.00002766,-0.00000645,-0.00001397,-0.000033
 91,-0.00001564,-0.00001787,0.00003448,-0.00002273,-0.00002709,0.000024
 54,0.00001643,-0.00000332,-0.00004682,0.00002149,0.00004547,0.00000039
 ,-0.00002615,0.00000871,-0.00806433,0.02631591,0.01797501,0.00306780,-
 0.00108224,-0.00183967,-0.01091031,-0.00034693,0.00175371,-0.10852164,
 0.08961162,0.07058676,0.00588216,-0.00968337,-0.00608435,0.00140119,-0
 .00358575,-0.00370716,0.11699233,0.00000361,0.00000581,-0.00000697,-0.
 00000345,0.00000050,-0.00000394,0.00000394,-0.00000724,-0.00000138,-0.
 00000266,0.00000180,-0.00000467,0.00001602,-0.00000919,0.00002628,-0.0
 0005423,-0.00000811,-0.00003818,0.00001542,0.00001295,0.00001256,0.000
 01433,0.00001259,0.00000336,-0.00003713,0.00001038,-0.00001234,-0.0000
 0762,0.00000296,0.00000068,-0.00000054,0.00000076,0.00000239,-0.000033
 27,-0.00000427,-0.00001515,-0.00001277,-0.00001267,-0.00000744,0.00001
 420,0.00000415,-0.00000135,-0.00003189,0.00000460,-0.00002844,-0.00001
 668,-0.00000641,0.00000511,0.00001167,-0.00000366,0.00000031,-0.000010
 69,0.00000935,0.00002003,-0.00000608,0.00000464,0.00000639,-0.00373924
 ,0.00152978,0.00443742,-0.00079734,0.00102961,0.00084299,-0.00133063,0
 .00248617,-0.00041231,0.09591231,-0.18545633,-0.10605411,-0.00102702,0
 .00035515,0.00151391,0.01269384,-0.01562884,-0.01558833,-0.10150190,0.
 19566157,-0.00001040,0.00001903,0.00000058,-0.00000150,0.00000049,-0.0
 0000033,0.00003235,0.00000240,-0.00002147,0.00000090,-0.00000196,-0.00
 000105,-0.00006247,-0.00001236,0.00003310,-0.00003120,-0.00007075,-0.0
 0003029,0.00001524,0.00004070,0.00000950,-0.00001860,0.00001247,0.0000
 0884,-0.00001111,-0.00003491,0.00000643,0.00000194,0.00000750,0.000001
 47,0.00001587,0.00000680,0.00000399,-0.00006449,0.00006931,-0.00002871
 ,0.00001103,-0.00006095,0.00000087,0.00000191,0.00000608,0.00000320,-0
 .00001186,-0.00000820,0.00000388,-0.00001059,0.00000332,-0.00000384,0.
 00000254,0.00000402,-0.00000517,0.00000554,-0.00003071,0.00000193,0.00
 001430,0.00001839,0.00000361,-0.00244053,-0.00203495,-0.00357454,-0.00
 080990,0.00137192,0.00048719,0.00091463,0.00004087,0.00227643,0.073885
 99,-0.10441831,-0.12728795,0.01493245,-0.01958581,-0.01341077,-0.00786
 450,0.00948808,0.00805058,-0.07844825,0.11521017,0.13339146,0.00069941
 ,0.00043119,-0.00023289,-0.00003868,0.00001799,-0.00004622,0.00022577,
 -0.00005700,0.00004941,-0.00001720,-0.00003804,-0.00005964,-0.00037314
 ,0.00054132,0.00038718,-0.00002233,-0.00003533,-0.00008336,-0.00009095
 ,-0.00008603,0.00020850,-0.00055668,-0.00012849,-0.00097155,-0.0000837
 1,-0.00044007,-0.00002420,0.00000385,-0.00006770,-0.00001032,0.0000046
 2,0.00002055,0.00000052,-0.00000242,0.00002852,0.00000950,-0.00009447,
 0.00002031,0.00001317,-0.00000873,-0.00000745,-0.00002665,0.00002585,-
 0.00000475,0.00002525,0.00009676,0.00012041,-0.00007308,-0.00008722,-0
 .00009263,-0.00000315,0.00009910,0.00001986,0.00006233,-0.00000386,-0.
 00000594,0.00003774,-0.00011589,-0.00031826,0.00004709,-0.00001864,0.0
 0002242,0.00003124,-0.00275378,-0.00074042,0.00066208,-0.00014161,0.00
 014122,0.00004101,-0.00011239,-0.00001805,-0.00000289,0.00002608,0.000
 02700,-0.00002506,-0.00005628,0.00000020,-0.00002764,0.09974261,0.0000
 6664,-0.00016311,0.00017509,0.00000167,0.00001011,0.00000711,0.0000452
 5,0.00013536,0.00023006,-0.00005427,0.00000064,-0.00004891,-0.00013028
 ,-0.00026251,0.00014753,-0.00007875,0.00004416,0.00002467,0.00016844,-
 0.00003418,-0.00065423,0.00015250,-0.00020610,0.00004356,0.00002910,0.
 00024318,0.00017295,0.00008071,0.00008289,0.00010139,0.00004302,0.0000
 3363,0.00002509,0.00000891,0.00006627,0.00000070,-0.00022237,0.0005953
 9,0.00003124,0.00007332,-0.00007964,0.00009155,0.00004306,-0.00004102,
 0.00004385,-0.00004776,-0.00013613,0.00007010,-0.00015205,-0.00014928,
 -0.00004176,0.00022339,-0.00005033,-0.00048931,0.00001975,0.00002523,0
 .00011213,-0.00038395,0.00093743,0.00015594,-0.00009877,-0.00082603,0.
 00006276,-0.00030152,-0.00052316,-0.00015579,-0.00000759,0.00001867,-0
 .00000910,-0.00000435,0.00004798,-0.00000529,-0.00000540,-0.00001523,0
 .00003681,-0.00000573,-0.00001358,-0.00002352,0.00364984,0.00493292,0.
 00010540,-0.00000686,0.00007010,-0.00003343,-0.00000043,0.00000695,-0.
 00010329,0.00002051,0.00010901,-0.00001364,0.00000185,0.00000614,-0.00
 038245,0.00022352,-0.00029499,-0.00015529,0.00002688,0.00006599,0.0002
 3330,0.00016085,0.00006574,0.00029592,-0.00026985,-0.00014381,0.000028
 85,-0.00022319,0.00000889,-0.00008036,0.00006800,-0.00001034,0.0000307
 8,0.00004052,0.00009268,-0.00004107,0.00000360,-0.00006291,-0.00004070
 ,0.00009670,-0.00005148,0.00004706,-0.00001859,0.00004494,-0.00002071,
 -0.00002505,-0.00002172,-0.00015971,-0.00002814,-0.00000806,0.00002818
 ,-0.00003239,0.00000175,0.00009121,-0.00024222,-0.00017784,0.00003354,
 0.00006439,0.00007432,0.00094316,-0.00055212,-0.00047676,-0.00003616,0
 .00037650,0.00030257,0.00037812,0.00039218,0.00102767,-0.00005851,-0.0
 0008685,-0.00008195,0.00001821,0.00002030,-0.00000251,-0.00000888,-0.0
 0001105,0.00001381,0.00000199,0.00001604,0.00002553,0.16899635,-0.0182
 1488,0.49249120,0.00059853,-0.00035907,-0.00122777,0.00041904,-0.00007
 127,0.00039441,-0.00049220,0.00077833,-0.00035878,0.00014207,0.0000904
 4,0.00012923,-0.00142402,0.00028355,-0.00016140,-0.00216188,0.00005433
 ,-0.00014492,0.00041485,-0.00043369,-0.00052196,-0.00146937,-0.0000305
 5,-0.00316795,-0.00047867,-0.00017855,0.00030417,0.00026580,-0.0007384
 2,0.00023059,0.00018597,-0.00009058,-0.00034825,-0.00075687,0.00029207
 ,-0.00014119,-0.00045703,0.00093646,0.00029575,0.00018595,-0.00010471,
 0.00005405,-0.00024613,-0.00025867,-0.00022847,-0.00038082,-0.00035086
 ,-0.00002950,0.00032182,0.00043518,-0.00001725,-0.00031215,-0.00044788
 ,0.00008941,0.00016317,-0.00001590,0.00001783,0.00513586,-0.01649999,-
 0.00602113,0.00276197,0.00678723,0.00379265,-0.01949802,-0.00018705,0.
 02662896,-0.00127957,0.00123076,-0.00067458,-0.00028655,0.00009137,0.0
 0003018,0.00020181,0.00011574,0.00007578,-0.00061382,0.00014277,0.0000
 6311,-0.11055935,-0.00891164,-0.15226845,0.38493128,-0.00103080,-0.000
 64376,0.00014254,-0.00004053,-0.00003316,-0.00003872,0.00103573,0.0004
 1429,-0.00039379,0.00013072,0.00006163,0.00014884,0.00018698,-0.002605
 17,0.00016154,-0.00035769,-0.00022273,0.00010624,-0.00049917,0.0015176
 5,-0.00058635,0.00052472,0.00077786,0.00084526,0.00065777,-0.00223515,
 0.00004931,-0.00098911,0.00081283,0.00008141,0.00008937,0.00053061,0.0
 0067556,0.00004587,0.00009538,-0.00079750,0.00042144,-0.00095109,0.000
 63113,-0.00021472,0.00016822,-0.00029562,-0.00015909,0.00002746,-0.000
 12509,0.00137218,-0.00004657,-0.00003844,0.00026277,0.00056191,0.00015
 940,-0.00162997,0.00038170,0.00060649,-0.00035684,-0.00049291,-0.00066
 028,0.00046572,-0.00964372,-0.00213431,0.00164985,0.00505360,0.0008293
 0,-0.00983238,0.00707712,0.00970662,-0.00056516,0.00068446,0.00023494,
 -0.00009466,-0.00003568,0.00002728,0.00011000,0.00007540,-0.00006776,-
 0.00033104,0.00002582,0.00003621,-0.00271788,-0.00506541,0.01980507,0.
 09361895,0.04594350,0.00156787,0.00106558,-0.00050507,-0.00018774,-0.0
 0000896,-0.00023820,0.00068634,-0.00025898,0.00110763,-0.00011485,-0.0
 0006685,-0.00021848,-0.00247029,0.00103953,-0.00181042,0.00076249,0.00
 014256,0.00067590,-0.00017194,-0.00017166,-0.00181144,-0.00373780,0.00
 020012,-0.00890338,-0.00047716,-0.00097117,-0.00059179,0.00010045,-0.0
 0007619,-0.00036258,-0.00016511,-0.00001058,-0.00016234,0.00030444,-0.
 00030044,0.00046020,-0.00041183,0.00101448,0.00021065,0.00000021,-0.00
 017211,0.00004648,0.00017758,0.00005739,0.00017691,0.00047635,-0.00007
 395,0.00007562,-0.00035227,-0.00027840,-0.00002106,0.00002413,0.000064
 79,-0.00078451,-0.00005783,-0.00008549,0.00008504,-0.00349190,0.011953
 39,0.00451333,-0.00091490,-0.00464074,-0.00252115,0.02218273,0.0015886
 9,-0.01743535,0.00144258,-0.00129338,0.00007238,0.00038093,-0.00003801
 ,0.00002390,-0.00019038,-0.00009827,-0.00004545,0.00067346,-0.00010619
 ,-0.00002053,-0.19962102,0.00715690,-0.46950544,0.01804908,-0.07544484
 ,0.64733985,-0.00122806,-0.00027821,0.00027640,-0.00012495,-0.00000443
 ,-0.00009015,-0.00022932,0.00001929,-0.00008080,-0.00008107,-0.0000243
 7,-0.00001080,0.00103481,-0.00144667,-0.00307508,0.00297007,-0.0000248
 3,0.00012145,-0.00048010,0.00024056,0.00059232,-0.00091197,0.00041291,
 0.00062157,-0.00021659,0.00078088,-0.00082880,-0.00077030,0.00064629,-
 0.00012555,0.00004300,0.00008530,0.00039920,0.00124069,-0.00012762,-0.
 00046231,0.00052131,-0.00057240,-0.00055085,-0.00014671,0.00006142,0.0
 0009860,0.00036935,0.00030166,0.00028893,-0.00030080,0.00027399,0.0001
 6622,-0.00034172,-0.00038238,0.00000391,0.00083080,-0.00013147,-0.0006
 1317,0.00003911,0.00025639,0.00011764,-0.01146956,0.02436622,0.0116344
 3,-0.00370689,-0.01156844,-0.00589860,0.01111251,-0.00540967,-0.020527
 26,0.00198265,-0.00116219,0.00094126,0.00044454,-0.00013333,-0.0000785
 0,-0.00019437,-0.00022465,-0.00012439,0.00077298,-0.00021518,-0.000084
 79,0.01421331,0.00579884,-0.01782942,-0.25531169,-0.08175300,0.1655364
 0,0.23993900,0.00040822,0.00037199,-0.00034466,-0.00004109,0.00002094,
 -0.00006463,-0.00016283,-0.00055525,-0.00010466,0.00000729,-0.00003211
 ,0.00000780,-0.00066457,0.00138507,-0.00171469,0.00055864,0.00026285,-
 0.00036421,-0.00063910,-0.00090355,0.00066697,-0.00013529,-0.00024237,
 0.00040199,0.00048740,0.00095958,-0.00015263,0.00049072,-0.00016179,-0
 .00016500,-0.00037569,-0.00029310,-0.00013903,0.00031466,-0.00054983,0
 .00121018,0.00000309,0.00004946,-0.00035857,0.00006660,-0.00003260,0.0
 0013431,0.00009534,0.00002694,0.00004614,-0.00058496,-0.00016814,-0.00
 005783,0.00003212,-0.00000923,-0.00000153,0.00042539,-0.00069141,-0.00
 025194,0.00018469,0.00024623,0.00016082,0.00204792,0.01328878,0.001244
 50,-0.00245871,-0.00650325,-0.00090250,0.00460329,-0.01494054,-0.00535
 132,0.00107847,-0.00102399,-0.00039250,0.00012657,-0.00001882,-0.00005
 995,-0.00013889,-0.00005482,0.00003922,0.00051679,-0.00000828,-0.00005
 536,-0.00028280,0.00039184,-0.00160532,-0.07617834,-0.04223411,0.05981
 281,0.07021508,0.05141950,0.00053162,0.00001791,-0.00033394,0.00025342
 ,-0.00000131,0.00021683,0.00060078,0.00035674,-0.00082963,0.00013895,0
 .00003173,0.00009782,-0.00250588,-0.00141159,-0.00076920,-0.00192355,-
 0.00063176,-0.00142541,-0.00000115,0.00007515,0.00000782,-0.00061220,-
 0.00001401,0.00004306,-0.00060905,0.00014175,0.00060024,0.00046076,-0.
 00045810,0.00025760,0.00034796,-0.00004860,-0.00025846,-0.00097282,0.0
 0105028,-0.00063213,-0.00006012,-0.00029118,0.00035144,0.00004184,0.00
 009743,-0.00013623,-0.00029054,-0.00021841,-0.00024459,0.00023523,-0.0
 0006747,-0.00004080,0.00031237,0.00037537,-0.00000458,-0.00060385,0.00
 012775,0.00075000,-0.00006635,-0.00016859,-0.00021617,0.00802296,-0.01
 879200,-0.00923817,0.00166460,0.00854781,0.00458739,-0.01658350,0.0033
 7999,0.01047474,-0.00241809,0.00182375,0.00038711,-0.00046187,0.000054
 33,-0.00001883,0.00024795,0.00018938,0.00003325,-0.00112435,0.00018316
 ,0.00007607,0.03063631,0.01095335,-0.02356947,0.11515640,0.04633556,-0
 .14985070,-0.13041783,-0.05163840,0.16968495\\-0.00000006,0.00000055,0
 .00000012,0.00000014,0.00000060,-0.00000013,-0.00000017,0.00000057,-0.
 00000033,-0.00000036,0.00000064,-0.00000068,0.00000019,0.00000038,-0.0
 0000027,0.00000015,0.00000023,0.00000033,-0.00000015,0.00000042,-0.000
 00037,0.00000053,0.00000044,0.00000003,0.00000023,0.00000049,0.0000005
 3,0.00000051,0.00000010,0.00000071,0.00000077,0.00000060,0.00000063,0.
 00000078,0.00000022,0.00000070,-0.00000051,0.00000019,-0.00000089,-0.0
 0000041,0.00000057,-0.00000095,-0.00000022,0.00000042,-0.00000046,-0.0
 0000054,-0.00000009,-0.00000070,-0.00000063,-0.00000013,-0.00000081,-0
 .00000045,-0.00000036,-0.00000051,-0.00000087,-0.00000030,-0.00000092,
 0.00000002,-0.00000012,0.00000044,-0.00000010,-0.00000031,0.00000005,0
 .00000035,-0.00000061,0.00000038,0.00000031,-0.00000058,0.00000054,0.0
 0000016,-0.00000102,0.00000068,0.00000047,-0.00000059,0.00000092,0.000
 00012,-0.00000065,0.00000048,-0.00000013,-0.00000076,0.00000013,-0.000
 00020,-0.00000046,0.,0.00000008,-0.00000046,0.00000036\\\@


 IN SO FAR AS QUANTUM MECHANICS IS CORRECT, CHEMICAL 
 QUESTIONS ARE PROBLEMS IN APPLIED MATHEMATICS.

                    -- EYRING, WALTER, & KIMBALL, 1944
 Job cpu time:       0 days 12 hours 15 minutes 20.6 seconds.
 File lengths (MBytes):  RWF=    469 Int=      0 D2E=      0 Chk=     16 Scr=      1
 Normal termination of Gaussian 09 at Tue Mar 17 13:14:01 2020.
