 Entering Gaussian System, Link 0=g09
 Input=opt.com
 Output=opt.log
 Initial command:
 /usr/local/Dist/g09/l1.exe "/scratch/washcoll/chudson/Gau-21931.inp" -scrdir="/scratch/washcoll/chudson/"
 Entering Link 1 = /usr/local/Dist/g09/l1.exe PID=     21932.
  
 Copyright (c) 1988,1990,1992,1993,1995,1998,2003,2009,2013,
            Gaussian, Inc.  All Rights Reserved.
  
 This is part of the Gaussian(R) 09 program.  It is based on
 the Gaussian(R) 03 system (copyright 2003, Gaussian, Inc.),
 the Gaussian(R) 98 system (copyright 1998, Gaussian, Inc.),
 the Gaussian(R) 94 system (copyright 1995, Gaussian, Inc.),
 the Gaussian 92(TM) system (copyright 1992, Gaussian, Inc.),
 the Gaussian 90(TM) system (copyright 1990, Gaussian, Inc.),
 the Gaussian 88(TM) system (copyright 1988, Gaussian, Inc.),
 the Gaussian 86(TM) system (copyright 1986, Carnegie Mellon
 University), and the Gaussian 82(TM) system (copyright 1983,
 Carnegie Mellon University). Gaussian is a federally registered
 trademark of Gaussian, Inc.
  
 This software contains proprietary and confidential information,
 including trade secrets, belonging to Gaussian, Inc.
  
 This software is provided under written license and may be
 used, copied, transmitted, or stored only in accord with that
 written license.
  
 The following legend is applicable only to US Government
 contracts under FAR:
  
                    RESTRICTED RIGHTS LEGEND
  
 Use, reproduction and disclosure by the US Government is
 subject to restrictions as set forth in subparagraphs (a)
 and (c) of the Commercial Computer Software - Restricted
 Rights clause in FAR 52.227-19.
  
 Gaussian, Inc.
 340 Quinnipiac St., Bldg. 40, Wallingford CT 06492
  
  
 ---------------------------------------------------------------
 Warning -- This program may not be used in any manner that
 competes with the business of Gaussian, Inc. or will provide
 assistance to any competitor of Gaussian, Inc.  The licensee
 of this program is prohibited from giving any competitor of
 Gaussian, Inc. access to this program.  By using this program,
 the user acknowledges that Gaussian, Inc. is engaged in the
 business of creating and licensing software in the field of
 computational chemistry and represents and warrants to the
 licensee that it is not a competitor of Gaussian, Inc. and that
 it will not use this program in any manner prohibited above.
 ---------------------------------------------------------------
  

 Cite this work as:
 Gaussian 09, Revision D.01,
 M. J. Frisch, G. W. Trucks, H. B. Schlegel, G. E. Scuseria, 
 M. A. Robb, J. R. Cheeseman, G. Scalmani, V. Barone, B. Mennucci, 
 G. A. Petersson, H. Nakatsuji, M. Caricato, X. Li, H. P. Hratchian, 
 A. F. Izmaylov, J. Bloino, G. Zheng, J. L. Sonnenberg, M. Hada, 
 M. Ehara, K. Toyota, R. Fukuda, J. Hasegawa, M. Ishida, T. Nakajima, 
 Y. Honda, O. Kitao, H. Nakai, T. Vreven, J. A. Montgomery, Jr., 
 J. E. Peralta, F. Ogliaro, M. Bearpark, J. J. Heyd, E. Brothers, 
 K. N. Kudin, V. N. Staroverov, T. Keith, R. Kobayashi, J. Normand, 
 K. Raghavachari, A. Rendell, J. C. Burant, S. S. Iyengar, J. Tomasi, 
 M. Cossi, N. Rega, J. M. Millam, M. Klene, J. E. Knox, J. B. Cross, 
 V. Bakken, C. Adamo, J. Jaramillo, R. Gomperts, R. E. Stratmann, 
 O. Yazyev, A. J. Austin, R. Cammi, C. Pomelli, J. W. Ochterski, 
 R. L. Martin, K. Morokuma, V. G. Zakrzewski, G. A. Voth, 
 P. Salvador, J. J. Dannenberg, S. Dapprich, A. D. Daniels, 
 O. Farkas, J. B. Foresman, J. V. Ortiz, J. Cioslowski, 
 and D. J. Fox, Gaussian, Inc., Wallingford CT, 2013.
 
 ******************************************
 Gaussian 09:  ES64L-G09RevD.01 24-Apr-2013
                 6-Mar-2020 
 ******************************************
 %nproc=4
 Will use up to    4 processors via shared memory.
 %chk=FlatRevAnAboveOxyAwyWater.chk
 Default route:  MaxDisk=700GB
 ----------------------------------------------------------------------
 #N M062X/aug-cc-pvdz OPT(tight) 5d 7f int(grid=ultrafine, exactbasistr
 ansform) scf(conver=10)
 ----------------------------------------------------------------------
 1/7=10,14=-1,18=20,19=15,26=4,38=1/1,3;
 2/9=110,12=2,17=6,18=5,40=1/2;
 3/5=16,7=10,8=11,11=2,16=1,25=1,30=1,60=1,71=1,74=-55,75=-5/1,2,3;
 4//1;
 5/5=2,6=10,38=5/2;
 6/7=2,8=2,9=2,10=2,28=1/1;
 7//1,2,3,16;
 1/7=10,14=-1,18=20,19=15,26=4/3(2);
 2/9=110/2;
 99//99;
 2/9=110/2;
 3/5=16,7=10,8=11,11=2,16=1,25=1,30=1,60=1,71=1,74=-55,75=-5/1,2,3;
 4/5=5,16=3,69=1/1;
 5/5=2,6=10,38=5/2;
 7//1,2,3,16;
 1/7=10,14=-1,18=20,19=15,26=4/3(-5);
 2/9=110/2;
 6/7=2,8=2,9=2,10=2,19=2,28=1/1;
 99/9=1/99;
 ------------------------------------
 RTIL FlatRev AnAbove Oxy Awy w/water
 ------------------------------------
 Symbolic Z-matrix:
 Charge =  0 Multiplicity = 1
 C                    -2.85864   0.48894  -0.08226 
 H                    -3.75362   1.02758   0.19722 
 C                    -2.58554  -0.84584  -0.09973 
 H                    -3.19853  -1.6995    0.1553 
 C                    -0.76972   0.22969  -0.74786 
 H                     0.29134   0.34891  -1.04089 
 N                    -1.28528  -0.97759  -0.52518 
 N                    -1.71768   1.13365  -0.50217 
 C                    -1.46772   2.56269  -0.38673 
 H                    -1.22893   2.78619   0.6577 
 H                    -2.35534   3.11075  -0.71253 
 H                    -0.61679   2.82057  -1.02103 
 C                    -0.48716  -2.21035  -0.57599 
 H                    -1.17368  -3.02187  -0.83968 
 H                     0.24966  -2.07403  -1.37215 
 C                     0.21142  -2.4438    0.75506 
 H                    -0.5151   -2.51093   1.57336 
 H                     0.89744  -1.61225   0.95377 
 H                     0.78401  -3.37632   0.7038 
 C                     2.5099    0.32547  -0.17572 
 O                     1.97997  -0.23893  -1.17098 
 O                     1.88927   0.76549   0.8327 
 C                     4.01925   0.52631  -0.19973 
 H                     4.42024   0.54977   0.8176 
 H                     4.22675   1.49397  -0.67509 
 H                     4.49168  -0.25749  -0.79803 
 H                    -0.30296   0.42967   2.92248 
 O                    -0.49673   0.53471   1.98758 
 H                     0.39369   0.60372   1.55279 
 
 Add virtual bond connecting atoms H29        and O22        Dist= 3.15D+00.
 Add virtual bond connecting atoms O21        and H6         Dist= 3.39D+00.

 GradGradGradGradGradGradGradGradGradGradGradGradGradGradGradGradGradGrad
 Berny optimization.
 Initialization pass.
                           ----------------------------
                           !    Initial Parameters    !
                           ! (Angstroms and Degrees)  !
 --------------------------                            --------------------------
 ! Name  Definition              Value          Derivative Info.                !
 --------------------------------------------------------------------------------
 ! R1    R(1,2)                  1.0813         estimate D2E/DX2                !
 ! R2    R(1,3)                  1.3625         estimate D2E/DX2                !
 ! R3    R(1,8)                  1.3761         estimate D2E/DX2                !
 ! R4    R(3,4)                  1.0815         estimate D2E/DX2                !
 ! R5    R(3,7)                  1.3744         estimate D2E/DX2                !
 ! R6    R(5,6)                  1.1072         estimate D2E/DX2                !
 ! R7    R(5,7)                  1.3315         estimate D2E/DX2                !
 ! R8    R(5,8)                  1.3327         estimate D2E/DX2                !
 ! R9    R(6,21)                 1.7928         estimate D2E/DX2                !
 ! R10   R(7,13)                 1.4694         estimate D2E/DX2                !
 ! R11   R(8,9)                  1.4553         estimate D2E/DX2                !
 ! R12   R(9,10)                 1.0944         estimate D2E/DX2                !
 ! R13   R(9,11)                 1.0929         estimate D2E/DX2                !
 ! R14   R(9,12)                 1.0922         estimate D2E/DX2                !
 ! R15   R(13,14)                1.0952         estimate D2E/DX2                !
 ! R16   R(13,15)                1.0933         estimate D2E/DX2                !
 ! R17   R(13,16)                1.5213         estimate D2E/DX2                !
 ! R18   R(16,17)                1.0963         estimate D2E/DX2                !
 ! R19   R(16,18)                1.0962         estimate D2E/DX2                !
 ! R20   R(16,19)                1.0955         estimate D2E/DX2                !
 ! R21   R(20,21)                1.2609         estimate D2E/DX2                !
 ! R22   R(20,22)                1.2632         estimate D2E/DX2                !
 ! R23   R(20,23)                1.5228         estimate D2E/DX2                !
 ! R24   R(22,29)                1.6678         estimate D2E/DX2                !
 ! R25   R(23,24)                1.0938         estimate D2E/DX2                !
 ! R26   R(23,25)                1.0979         estimate D2E/DX2                !
 ! R27   R(23,26)                1.0934         estimate D2E/DX2                !
 ! R28   R(27,28)                0.9605         estimate D2E/DX2                !
 ! R29   R(28,29)                0.9933         estimate D2E/DX2                !
 ! A1    A(2,1,3)              131.0866         estimate D2E/DX2                !
 ! A2    A(2,1,8)              122.1219         estimate D2E/DX2                !
 ! A3    A(3,1,8)              106.7892         estimate D2E/DX2                !
 ! A4    A(1,3,4)              131.0452         estimate D2E/DX2                !
 ! A5    A(1,3,7)              106.7082         estimate D2E/DX2                !
 ! A6    A(4,3,7)              122.2461         estimate D2E/DX2                !
 ! A7    A(6,5,7)              120.8606         estimate D2E/DX2                !
 ! A8    A(6,5,8)              131.1014         estimate D2E/DX2                !
 ! A9    A(7,5,8)              107.9847         estimate D2E/DX2                !
 ! A10   A(5,6,21)             152.4428         estimate D2E/DX2                !
 ! A11   A(3,7,5)              109.3387         estimate D2E/DX2                !
 ! A12   A(3,7,13)             127.226          estimate D2E/DX2                !
 ! A13   A(5,7,13)             122.9955         estimate D2E/DX2                !
 ! A14   A(1,8,5)              109.1606         estimate D2E/DX2                !
 ! A15   A(1,8,9)              125.3262         estimate D2E/DX2                !
 ! A16   A(5,8,9)              123.9514         estimate D2E/DX2                !
 ! A17   A(8,9,10)             108.2822         estimate D2E/DX2                !
 ! A18   A(8,9,11)             109.2248         estimate D2E/DX2                !
 ! A19   A(8,9,12)             108.6386         estimate D2E/DX2                !
 ! A20   A(10,9,11)            111.0562         estimate D2E/DX2                !
 ! A21   A(10,9,12)            109.6342         estimate D2E/DX2                !
 ! A22   A(11,9,12)            109.9517         estimate D2E/DX2                !
 ! A23   A(7,13,14)            106.8281         estimate D2E/DX2                !
 ! A24   A(7,13,15)            106.6556         estimate D2E/DX2                !
 ! A25   A(7,13,16)            110.3592         estimate D2E/DX2                !
 ! A26   A(14,13,15)           109.8467         estimate D2E/DX2                !
 ! A27   A(14,13,16)           112.6327         estimate D2E/DX2                !
 ! A28   A(15,13,16)           110.2925         estimate D2E/DX2                !
 ! A29   A(13,16,17)           110.9866         estimate D2E/DX2                !
 ! A30   A(13,16,18)           109.2442         estimate D2E/DX2                !
 ! A31   A(13,16,19)           109.2513         estimate D2E/DX2                !
 ! A32   A(17,16,18)           109.0192         estimate D2E/DX2                !
 ! A33   A(17,16,19)           109.2185         estimate D2E/DX2                !
 ! A34   A(18,16,19)           109.0938         estimate D2E/DX2                !
 ! A35   A(21,20,22)           125.4182         estimate D2E/DX2                !
 ! A36   A(21,20,23)           117.5896         estimate D2E/DX2                !
 ! A37   A(22,20,23)           116.9752         estimate D2E/DX2                !
 ! A38   A(6,21,20)            101.0589         estimate D2E/DX2                !
 ! A39   A(20,22,29)           138.7181         estimate D2E/DX2                !
 ! A40   A(20,23,24)           110.5808         estimate D2E/DX2                !
 ! A41   A(20,23,25)           108.0827         estimate D2E/DX2                !
 ! A42   A(20,23,26)           110.0195         estimate D2E/DX2                !
 ! A43   A(24,23,25)           108.3316         estimate D2E/DX2                !
 ! A44   A(24,23,26)           111.465          estimate D2E/DX2                !
 ! A45   A(25,23,26)           108.2544         estimate D2E/DX2                !
 ! A46   A(27,28,29)           104.6442         estimate D2E/DX2                !
 ! A47   L(22,29,28,5,-1)      180.5369         estimate D2E/DX2                !
 ! A48   L(22,29,28,5,-2)      181.5224         estimate D2E/DX2                !
 ! D1    D(2,1,3,4)              0.4787         estimate D2E/DX2                !
 ! D2    D(2,1,3,7)           -179.2492         estimate D2E/DX2                !
 ! D3    D(8,1,3,4)            179.9246         estimate D2E/DX2                !
 ! D4    D(8,1,3,7)              0.1966         estimate D2E/DX2                !
 ! D5    D(2,1,8,5)            178.5198         estimate D2E/DX2                !
 ! D6    D(2,1,8,9)             12.3682         estimate D2E/DX2                !
 ! D7    D(3,1,8,5)             -0.987          estimate D2E/DX2                !
 ! D8    D(3,1,8,9)           -167.1387         estimate D2E/DX2                !
 ! D9    D(1,3,7,5)              0.6603         estimate D2E/DX2                !
 ! D10   D(1,3,7,13)           173.1637         estimate D2E/DX2                !
 ! D11   D(4,3,7,5)           -179.0971         estimate D2E/DX2                !
 ! D12   D(4,3,7,13)            -6.5937         estimate D2E/DX2                !
 ! D13   D(7,5,6,21)           -19.1215         estimate D2E/DX2                !
 ! D14   D(8,5,6,21)           157.8813         estimate D2E/DX2                !
 ! D15   D(6,5,7,3)            176.346          estimate D2E/DX2                !
 ! D16   D(6,5,7,13)             3.4611         estimate D2E/DX2                !
 ! D17   D(8,5,7,3)             -1.2799         estimate D2E/DX2                !
 ! D18   D(8,5,7,13)          -174.1648         estimate D2E/DX2                !
 ! D19   D(6,5,8,1)           -175.8917         estimate D2E/DX2                !
 ! D20   D(6,5,8,9)             -9.508          estimate D2E/DX2                !
 ! D21   D(7,5,8,1)              1.4035         estimate D2E/DX2                !
 ! D22   D(7,5,8,9)            167.7873         estimate D2E/DX2                !
 ! D23   D(5,6,21,20)          -99.1243         estimate D2E/DX2                !
 ! D24   D(3,7,13,14)           35.2254         estimate D2E/DX2                !
 ! D25   D(3,7,13,15)          152.6585         estimate D2E/DX2                !
 ! D26   D(3,7,13,16)          -87.5306         estimate D2E/DX2                !
 ! D27   D(5,7,13,14)         -153.215          estimate D2E/DX2                !
 ! D28   D(5,7,13,15)          -35.7819         estimate D2E/DX2                !
 ! D29   D(5,7,13,16)           84.029          estimate D2E/DX2                !
 ! D30   D(1,8,9,10)            75.3431         estimate D2E/DX2                !
 ! D31   D(1,8,9,11)           -45.7172         estimate D2E/DX2                !
 ! D32   D(1,8,9,12)          -165.6513         estimate D2E/DX2                !
 ! D33   D(5,8,9,10)           -88.8402         estimate D2E/DX2                !
 ! D34   D(5,8,9,11)           150.0996         estimate D2E/DX2                !
 ! D35   D(5,8,9,12)            30.1655         estimate D2E/DX2                !
 ! D36   D(7,13,16,17)          58.3765         estimate D2E/DX2                !
 ! D37   D(7,13,16,18)         -61.8627         estimate D2E/DX2                !
 ! D38   D(7,13,16,19)         178.8678         estimate D2E/DX2                !
 ! D39   D(14,13,16,17)        -60.9162         estimate D2E/DX2                !
 ! D40   D(14,13,16,18)        178.8446         estimate D2E/DX2                !
 ! D41   D(14,13,16,19)         59.5751         estimate D2E/DX2                !
 ! D42   D(15,13,16,17)        175.9677         estimate D2E/DX2                !
 ! D43   D(15,13,16,18)         55.7285         estimate D2E/DX2                !
 ! D44   D(15,13,16,19)        -63.5409         estimate D2E/DX2                !
 ! D45   D(22,20,21,6)          21.1198         estimate D2E/DX2                !
 ! D46   D(23,20,21,6)        -157.3319         estimate D2E/DX2                !
 ! D47   D(21,20,22,29)         16.6932         estimate D2E/DX2                !
 ! D48   D(23,20,22,29)       -164.8465         estimate D2E/DX2                !
 ! D49   D(21,20,23,24)       -152.3601         estimate D2E/DX2                !
 ! D50   D(21,20,23,25)         89.2143         estimate D2E/DX2                !
 ! D51   D(21,20,23,26)        -28.7986         estimate D2E/DX2                !
 ! D52   D(22,20,23,24)         29.0557         estimate D2E/DX2                !
 ! D53   D(22,20,23,25)        -89.3699         estimate D2E/DX2                !
 ! D54   D(22,20,23,26)        152.6172         estimate D2E/DX2                !
 ! D55   D(20,22,28,27)        135.3115         estimate D2E/DX2                !
 --------------------------------------------------------------------------------
 Trust Radius=3.00D-01 FncErr=1.00D-07 GrdErr=1.00D-06
 Number of steps in this run=    142 maximum allowed number of steps=    174.
 GradGradGradGradGradGradGradGradGradGradGradGradGradGradGradGradGradGrad

                          Input orientation:                          
 ---------------------------------------------------------------------
 Center     Atomic      Atomic             Coordinates (Angstroms)
 Number     Number       Type             X           Y           Z
 ---------------------------------------------------------------------
      1          6           0       -2.858640    0.488943   -0.082256
      2          1           0       -3.753615    1.027585    0.197215
      3          6           0       -2.585541   -0.845836   -0.099726
      4          1           0       -3.198528   -1.699503    0.155299
      5          6           0       -0.769724    0.229686   -0.747857
      6          1           0        0.291338    0.348913   -1.040890
      7          7           0       -1.285278   -0.977594   -0.525175
      8          7           0       -1.717681    1.133651   -0.502169
      9          6           0       -1.467717    2.562687   -0.386729
     10          1           0       -1.228934    2.786188    0.657702
     11          1           0       -2.355342    3.110747   -0.712534
     12          1           0       -0.616786    2.820573   -1.021032
     13          6           0       -0.487162   -2.210350   -0.575985
     14          1           0       -1.173675   -3.021874   -0.839676
     15          1           0        0.249658   -2.074034   -1.372152
     16          6           0        0.211422   -2.443795    0.755063
     17          1           0       -0.515103   -2.510929    1.573358
     18          1           0        0.897444   -1.612252    0.953769
     19          1           0        0.784014   -3.376323    0.703804
     20          6           0        2.509899    0.325472   -0.175717
     21          8           0        1.979968   -0.238932   -1.170976
     22          8           0        1.889274    0.765493    0.832697
     23          6           0        4.019251    0.526310   -0.199732
     24          1           0        4.420239    0.549774    0.817600
     25          1           0        4.226751    1.493966   -0.675085
     26          1           0        4.491679   -0.257486   -0.798027
     27          1           0       -0.302962    0.429668    2.922484
     28          8           0       -0.496726    0.534709    1.987582
     29          1           0        0.393690    0.603720    1.552785
 ---------------------------------------------------------------------
                    Distance matrix (angstroms):
                    1          2          3          4          5
     1  C    0.000000
     2  H    1.081305   0.000000
     3  C    1.362543   2.227617   0.000000
     4  H    2.227387   2.783323   1.081452   0.000000
     5  C    2.207670   3.230079   2.207717   3.230565   0.000000
     6  H    3.295595   4.284290   3.254174   4.219720   1.107220
     7  N    2.195991   3.261177   1.374427   2.155162   1.331506
     8  N    1.376141   2.155323   2.198525   3.263730   1.332718
     9  C    2.515509   2.814757   3.598601   4.632037   2.461809
    10  H    2.912184   3.111068   3.950402   4.924747   2.953332
    11  H    2.743067   2.668778   4.010371   4.960101   3.288760
    12  H    3.368042   3.812955   4.262318   5.336687   2.609734
    13  C    3.626825   4.663880   2.547924   2.854338   2.462348
    14  H    3.967194   4.912164   2.697412   2.615085   3.277842
    15  H    4.230154   5.301806   3.341540   3.789903   2.595382
    16  C    4.327509   5.299358   3.332737   3.541390   3.220080
    17  H    4.151199   4.990272   3.139818   3.141667   3.600534
    18  H    4.426797   5.401246   3.718660   4.173985   3.011265
    19  H    5.369087   6.343588   4.289863   4.355826   4.186254
    20  C    5.371840   6.313767   5.228886   6.065990   3.330532
    21  O    5.012708   6.029095   4.728613   5.541579   2.821248
    22  O    4.843171   5.684604   4.846624   5.693927   3.139349
    23  C    6.878996   7.799121   6.746559   7.561523   4.829359
    24  H    7.334543   8.211277   7.202095   7.971418   5.430362
    25  H    7.180827   8.041434   7.225859   8.125426   5.154460
    26  H    7.422713   8.403974   7.135883   7.882102   5.284148
    27  H    3.945056   4.437522   3.996352   4.535966   3.705302
    28  O    3.140854   3.749089   3.259740   3.955844   2.765898
    29  H    3.642003   4.383762   3.702408   4.490193   2.605070
                    6          7          8          9         10
     6  H    0.000000
     7  N    2.123982   0.000000
     8  N    2.223104   2.155193   0.000000
     9  C    2.902240   3.547681   1.455319   0.000000
    10  H    3.337177   3.945685   2.077271   1.094443   0.000000
    11  H    3.839331   4.230210   2.088007   1.092885   1.803242
    12  H    2.633284   3.888294   2.080119   1.092213   1.787192
    13  C    2.715148   1.469441   3.563982   4.876391   5.199769
    14  H    3.680891   2.071339   4.204550   5.610610   5.998231
    15  H    2.445842   2.067747   3.862193   5.041787   5.470676
    16  C    3.321303   2.455375   4.254432   5.402597   5.425572
    17  H    3.957693   2.710743   4.363138   5.521865   5.422862
    18  H    2.862201   2.711889   4.061849   4.982072   4.894427
    19  H    4.142954   3.397979   5.296481   6.444486   6.483103
    20  C    2.381404   4.027837   4.316498   4.568488   4.552865
    21  O    1.792751   3.409474   4.000487   4.511169   4.774146
    22  O    2.497452   3.867809   3.863616   3.998286   3.719819
    23  C    3.825749   5.523194   5.776913   5.855648   5.778035
    24  H    4.532345   6.057130   6.305297   6.338001   6.077851
    25  H    4.114904   6.042644   5.957852   5.801058   5.762869
    26  H    4.250831   5.828056   6.370161   6.605826   6.641424
    27  H    4.008497   3.851192   3.771640   4.105766   3.397035
    28  O    3.134838   3.036910   2.836957   3.269996   2.715487
    29  H    2.608170   3.104417   2.993585   3.326275   2.863084
                   11         12         13         14         15
    11  H    0.000000
    12  H    1.789399   0.000000
    13  C    5.641171   5.052233   0.000000
    14  H    6.246723   5.871729   1.095173   0.000000
    15  H    5.839784   4.983090   1.093329   1.791036   0.000000
    16  C    6.292460   5.617296   1.521251   2.189946   2.159451
    17  H    6.341532   5.930102   2.170439   2.552942   3.074372
    18  H    5.971926   5.083569   2.148256   3.081073   2.458206
    19  H    7.344634   6.583223   2.147846   2.518037   2.508204
    20  C    5.631740   4.088551   3.946262   5.021383   3.506818
    21  O    5.497766   4.015742   3.213601   4.219003   2.530226
    22  O    5.089668   3.733631   4.060477   5.150013   3.951280
    23  C    6.897660   5.237463   5.285701   6.321837   4.727176
    24  H    7.403269   5.823119   5.800254   6.840695   5.391950
    25  H    6.777856   5.033827   5.996062   7.041626   5.388302
    26  H    7.631120   5.968299   5.352741   6.303952   4.650184
    27  H    4.961230   4.622362   4.386674   5.179298   5.001781
    28  O    4.169059   3.780390   3.755971   4.593575   4.318616
    29  H    4.355919   3.544014   3.636833   4.617947   3.968169
                   16         17         18         19         20
    16  C    0.000000
    17  H    1.096336   0.000000
    18  H    1.096163   1.785161   0.000000
    19  H    1.095490   1.786823   1.785300   0.000000
    20  C    3.717282   4.500563   2.762340   4.177981   0.000000
    21  O    3.420351   4.349565   2.751801   3.845560   1.260920
    22  O    3.622257   4.130926   2.579158   4.288689   1.263207
    23  C    4.922674   5.738383   3.955969   5.149144   1.522845
    24  H    5.165221   5.856336   4.135575   5.352506   2.164807
    25  H    5.802943   6.601504   4.835912   6.121559   2.135961
    26  H    5.051003   5.980747   4.221695   5.072418   2.157443
    27  H    3.635807   3.242261   3.079976   4.537579   4.185916
    28  O    3.300313   3.073732   2.760783   4.310980   3.709911
    29  H    3.155460   3.244590   2.350132   4.088259   2.746540
                   21         22         23         24         25
    21  O    0.000000
    22  O    2.243168   0.000000
    23  C    2.384866   2.379059   0.000000
    24  H    3.245214   2.540186   1.093758   0.000000
    25  H    2.880430   2.875392   1.097896   1.776807   0.000000
    26  H    2.539316   3.237014   1.093381   1.807491   1.775637
    27  H    4.734470   3.047275   5.332832   5.172387   5.881627
    28  O    4.087667   2.660830   5.017814   5.054268   5.506469
    29  H    3.262700   1.667774   4.027654   4.093471   4.521980
                   26         27         28         29
    26  H    0.000000
    27  H    6.107615   0.000000
    28  O    5.768134   0.960531   0.000000
    29  H    4.802240   1.546510   0.993303   0.000000
 Stoichiometry    C8H16N2O3
 Framework group  C1[X(C8H16N2O3)]
 Deg. of freedom    81
 Full point group                 C1      NOp   1
 Largest Abelian subgroup         C1      NOp   1
 Largest concise Abelian subgroup C1      NOp   1
                         Standard orientation:                         
 ---------------------------------------------------------------------
 Center     Atomic      Atomic             Coordinates (Angstroms)
 Number     Number       Type             X           Y           Z
 ---------------------------------------------------------------------
      1          6           0        2.858640   -0.488943   -0.082256
      2          1           0        3.753615   -1.027585    0.197215
      3          6           0        2.585541    0.845836   -0.099726
      4          1           0        3.198528    1.699503    0.155299
      5          6           0        0.769724   -0.229686   -0.747857
      6          1           0       -0.291338   -0.348913   -1.040890
      7          7           0        1.285278    0.977594   -0.525175
      8          7           0        1.717681   -1.133651   -0.502169
      9          6           0        1.467717   -2.562687   -0.386729
     10          1           0        1.228934   -2.786188    0.657702
     11          1           0        2.355342   -3.110747   -0.712534
     12          1           0        0.616786   -2.820573   -1.021032
     13          6           0        0.487162    2.210350   -0.575985
     14          1           0        1.173675    3.021874   -0.839676
     15          1           0       -0.249658    2.074034   -1.372152
     16          6           0       -0.211422    2.443795    0.755063
     17          1           0        0.515103    2.510929    1.573358
     18          1           0       -0.897444    1.612252    0.953769
     19          1           0       -0.784014    3.376323    0.703804
     20          6           0       -2.509899   -0.325472   -0.175717
     21          8           0       -1.979968    0.238932   -1.170976
     22          8           0       -1.889274   -0.765493    0.832697
     23          6           0       -4.019251   -0.526310   -0.199732
     24          1           0       -4.420239   -0.549774    0.817600
     25          1           0       -4.226751   -1.493966   -0.675085
     26          1           0       -4.491679    0.257486   -0.798027
     27          1           0        0.302962   -0.429668    2.922484
     28          8           0        0.496726   -0.534709    1.987582
     29          1           0       -0.393690   -0.603720    1.552785
 ---------------------------------------------------------------------
 Rotational constants (GHZ):      1.0414358      0.5540894      0.4574688
 Standard basis: Aug-CC-pVDZ (5D, 7F)
 There are   469 symmetry adapted cartesian basis functions of A   symmetry.
 There are   443 symmetry adapted basis functions of A   symmetry.
   443 basis functions,   735 primitive gaussians,   469 cartesian basis functions
    51 alpha electrons       51 beta electrons
       nuclear repulsion energy       880.0870454393 Hartrees.
 NAtoms=   29 NActive=   29 NUniq=   29 SFac= 1.00D+00 NAtFMM=   60 NAOKFM=F Big=F
 Integral buffers will be    131072 words long.
 Raffenetti 2 integral format.
 Two-electron integral symmetry is turned on.
 One-electron integrals computed using PRISM.
 NBasis=   443 RedAO= T EigKep=  5.24D-06  NBF=   443
 NBsUse=   443 1.00D-06 EigRej= -1.00D+00 NBFU=   443
 ExpMin= 2.97D-02 ExpMax= 1.17D+04 ExpMxC= 4.01D+02 IAcc=3 IRadAn=         5 AccDes= 0.00D+00
 Harris functional with IExCor= 1009 and IRadAn=       5 diagonalized for initial guess.
 HarFok:  IExCor= 1009 AccDes= 0.00D+00 IRadAn=         5 IDoV= 1 UseB2=F ITyADJ=14
 ICtDFT=  3500011 ScaDFX=  1.000000  1.000000  1.000000  1.000000
 FoFCou: FMM=F IPFlag=           0 FMFlag=      100000 FMFlg1=           0
         NFxFlg=           0 DoJE=T BraDBF=F KetDBF=T FulRan=T
         wScrn=  0.000000 ICntrl=     500 IOpCl=  0 I1Cent=   200000004 NGrid=           0
         NMat0=    1 NMatS0=      1 NMatT0=    0 NMatD0=    1 NMtDS0=    0 NMtDT0=    0
 Petite list used in FoFCou.
 Requested convergence on RMS density matrix=1.00D-10 within 128 cycles.
 Requested convergence on MAX density matrix=1.00D-08.
 Requested convergence on             energy=1.00D-08.
 No special actions if energy rises.
 SCF Done:  E(RM062X) =  -649.496563364     A.U. after   18 cycles
            NFock= 18  Conv=0.62D-10     -V/T= 2.0062

 **********************************************************************

            Population analysis using the SCF density.

 **********************************************************************

 Orbital symmetries:
       Occupied  (A) (A) (A) (A) (A) (A) (A) (A) (A) (A) (A) (A)
                 (A) (A) (A) (A) (A) (A) (A) (A) (A) (A) (A) (A)
                 (A) (A) (A) (A) (A) (A) (A) (A) (A) (A) (A) (A)
                 (A) (A) (A) (A) (A) (A) (A) (A) (A) (A) (A) (A)
                 (A) (A) (A)
       Virtual   (A) (A) (A) (A) (A) (A) (A) (A) (A) (A) (A) (A)
                 (A) (A) (A) (A) (A) (A) (A) (A) (A) (A) (A) (A)
                 (A) (A) (A) (A) (A) (A) (A) (A) (A) (A) (A) (A)
                 (A) (A) (A) (A) (A) (A) (A) (A) (A) (A) (A) (A)
                 (A) (A) (A) (A) (A) (A) (A) (A) (A) (A) (A) (A)
                 (A) (A) (A) (A) (A) (A) (A) (A) (A) (A) (A) (A)
                 (A) (A) (A) (A) (A) (A) (A) (A) (A) (A) (A) (A)
                 (A) (A) (A) (A) (A) (A) (A) (A) (A) (A) (A) (A)
                 (A) (A) (A) (A) (A) (A) (A) (A) (A) (A) (A) (A)
                 (A) (A) (A) (A) (A) (A) (A) (A) (A) (A) (A) (A)
                 (A) (A) (A) (A) (A) (A) (A) (A) (A) (A) (A) (A)
                 (A) (A) (A) (A) (A) (A) (A) (A) (A) (A) (A) (A)
                 (A) (A) (A) (A) (A) (A) (A) (A) (A) (A) (A) (A)
                 (A) (A) (A) (A) (A) (A) (A) (A) (A) (A) (A) (A)
                 (A) (A) (A) (A) (A) (A) (A) (A) (A) (A) (A) (A)
                 (A) (A) (A) (A) (A) (A) (A) (A) (A) (A) (A) (A)
                 (A) (A) (A) (A) (A) (A) (A) (A) (A) (A) (A) (A)
                 (A) (A) (A) (A) (A) (A) (A) (A) (A) (A) (A) (A)
                 (A) (A) (A) (A) (A) (A) (A) (A) (A) (A) (A) (A)
                 (A) (A) (A) (A) (A) (A) (A) (A) (A) (A) (A) (A)
                 (A) (A) (A) (A) (A) (A) (A) (A) (A) (A) (A) (A)
                 (A) (A) (A) (A) (A) (A) (A) (A) (A) (A) (A) (A)
                 (A) (A) (A) (A) (A) (A) (A) (A) (A) (A) (A) (A)
                 (A) (A) (A) (A) (A) (A) (A) (A) (A) (A) (A) (A)
                 (A) (A) (A) (A) (A) (A) (A) (A) (A) (A) (A) (A)
                 (A) (A) (A) (A) (A) (A) (A) (A) (A) (A) (A) (A)
                 (A) (A) (A) (A) (A) (A) (A) (A) (A) (A) (A) (A)
                 (A) (A) (A) (A) (A) (A) (A) (A) (A) (A) (A) (A)
                 (A) (A) (A) (A) (A) (A) (A) (A) (A) (A) (A) (A)
                 (A) (A) (A) (A) (A) (A) (A) (A) (A) (A) (A) (A)
                 (A) (A) (A) (A) (A) (A) (A) (A) (A) (A) (A) (A)
                 (A) (A) (A) (A) (A) (A) (A) (A) (A) (A) (A) (A)
                 (A) (A) (A) (A) (A) (A) (A) (A)
 The electronic state is 1-A.
 Alpha  occ. eigenvalues --  -19.59918 -19.55868 -19.55644 -14.86089 -14.85522
 Alpha  occ. eigenvalues --  -10.63806 -10.61687 -10.61596 -10.61076 -10.60850
 Alpha  occ. eigenvalues --  -10.60323 -10.53943 -10.50130  -1.19868  -1.12607
 Alpha  occ. eigenvalues --   -1.08699  -1.07451  -1.02729  -0.91732  -0.87827
 Alpha  occ. eigenvalues --   -0.83540  -0.77758  -0.75450  -0.72709  -0.69492
 Alpha  occ. eigenvalues --   -0.63974  -0.59750  -0.58153  -0.56605  -0.54924
 Alpha  occ. eigenvalues --   -0.54786  -0.54279  -0.52683  -0.51899  -0.50791
 Alpha  occ. eigenvalues --   -0.48869  -0.47768  -0.47473  -0.47294  -0.46006
 Alpha  occ. eigenvalues --   -0.44275  -0.43225  -0.41869  -0.41048  -0.39029
 Alpha  occ. eigenvalues --   -0.37184  -0.35567  -0.32847  -0.29353  -0.28541
 Alpha  occ. eigenvalues --   -0.28212
 Alpha virt. eigenvalues --   -0.01549  -0.00560   0.00083   0.00643   0.01470
 Alpha virt. eigenvalues --    0.01912   0.01933   0.02421   0.02853   0.03635
 Alpha virt. eigenvalues --    0.03744   0.04183   0.04453   0.05268   0.05620
 Alpha virt. eigenvalues --    0.05848   0.06316   0.06485   0.07249   0.07943
 Alpha virt. eigenvalues --    0.08048   0.08851   0.09076   0.09552   0.09903
 Alpha virt. eigenvalues --    0.10195   0.10338   0.11205   0.11432   0.11595
 Alpha virt. eigenvalues --    0.11913   0.12237   0.12524   0.12867   0.13682
 Alpha virt. eigenvalues --    0.14120   0.14328   0.14369   0.14724   0.15275
 Alpha virt. eigenvalues --    0.15407   0.15747   0.16407   0.16578   0.16933
 Alpha virt. eigenvalues --    0.17706   0.18007   0.18264   0.18432   0.18916
 Alpha virt. eigenvalues --    0.19699   0.20035   0.20231   0.21016   0.21942
 Alpha virt. eigenvalues --    0.22605   0.22853   0.23163   0.23239   0.24011
 Alpha virt. eigenvalues --    0.24203   0.24676   0.25097   0.25543   0.26057
 Alpha virt. eigenvalues --    0.26214   0.27035   0.27445   0.27732   0.27994
 Alpha virt. eigenvalues --    0.28947   0.29264   0.29668   0.29997   0.30326
 Alpha virt. eigenvalues --    0.31037   0.31855   0.32082   0.32674   0.32871
 Alpha virt. eigenvalues --    0.33801   0.34294   0.34892   0.35226   0.35689
 Alpha virt. eigenvalues --    0.36094   0.36909   0.37265   0.37673   0.38028
 Alpha virt. eigenvalues --    0.38170   0.38678   0.38955   0.39318   0.39451
 Alpha virt. eigenvalues --    0.40084   0.40782   0.40856   0.41262   0.41938
 Alpha virt. eigenvalues --    0.42779   0.43155   0.43582   0.43706   0.44205
 Alpha virt. eigenvalues --    0.45068   0.45433   0.46315   0.46689   0.46799
 Alpha virt. eigenvalues --    0.47247   0.47527   0.48609   0.48995   0.49337
 Alpha virt. eigenvalues --    0.49733   0.49925   0.51427   0.51719   0.52326
 Alpha virt. eigenvalues --    0.52494   0.52585   0.53289   0.53789   0.54120
 Alpha virt. eigenvalues --    0.54445   0.54731   0.55041   0.55506   0.55947
 Alpha virt. eigenvalues --    0.56601   0.57276   0.57873   0.58250   0.58520
 Alpha virt. eigenvalues --    0.58727   0.59330   0.59638   0.60502   0.61136
 Alpha virt. eigenvalues --    0.61434   0.61740   0.62211   0.62572   0.63060
 Alpha virt. eigenvalues --    0.63724   0.63965   0.64573   0.65302   0.65480
 Alpha virt. eigenvalues --    0.66522   0.66971   0.67257   0.67574   0.68188
 Alpha virt. eigenvalues --    0.69056   0.69697   0.70449   0.70828   0.71357
 Alpha virt. eigenvalues --    0.71716   0.72712   0.73270   0.74109   0.74874
 Alpha virt. eigenvalues --    0.75656   0.76115   0.76628   0.77192   0.77570
 Alpha virt. eigenvalues --    0.78502   0.79106   0.79439   0.80174   0.80913
 Alpha virt. eigenvalues --    0.81580   0.81928   0.83459   0.84071   0.85278
 Alpha virt. eigenvalues --    0.86144   0.86610   0.87329   0.88720   0.89410
 Alpha virt. eigenvalues --    0.90517   0.91315   0.91968   0.92454   0.94337
 Alpha virt. eigenvalues --    0.94509   0.95539   0.96145   0.97242   0.97483
 Alpha virt. eigenvalues --    0.98053   0.98658   1.00127   1.00378   1.01057
 Alpha virt. eigenvalues --    1.01359   1.02943   1.03618   1.05086   1.05222
 Alpha virt. eigenvalues --    1.06242   1.07161   1.08130   1.09032   1.09541
 Alpha virt. eigenvalues --    1.11071   1.11677   1.12972   1.13736   1.14555
 Alpha virt. eigenvalues --    1.16537   1.16637   1.17059   1.18776   1.19945
 Alpha virt. eigenvalues --    1.20791   1.21277   1.23765   1.24384   1.25254
 Alpha virt. eigenvalues --    1.26671   1.30754   1.31898   1.32934   1.34459
 Alpha virt. eigenvalues --    1.35976   1.36391   1.37466   1.38304   1.38516
 Alpha virt. eigenvalues --    1.40790   1.41050   1.42540   1.43684   1.44322
 Alpha virt. eigenvalues --    1.45481   1.47492   1.48349   1.48789   1.49345
 Alpha virt. eigenvalues --    1.51310   1.51398   1.52757   1.54921   1.55324
 Alpha virt. eigenvalues --    1.56426   1.56561   1.59206   1.61791   1.62096
 Alpha virt. eigenvalues --    1.63210   1.64204   1.65374   1.65951   1.66994
 Alpha virt. eigenvalues --    1.67706   1.68461   1.69657   1.70253   1.70873
 Alpha virt. eigenvalues --    1.71225   1.72542   1.73159   1.75075   1.75406
 Alpha virt. eigenvalues --    1.76875   1.77805   1.80028   1.80266   1.83125
 Alpha virt. eigenvalues --    1.83432   1.84117   1.85186   1.85569   1.86751
 Alpha virt. eigenvalues --    1.87555   1.88687   1.89178   1.90190   1.90783
 Alpha virt. eigenvalues --    1.91723   1.92069   1.93531   1.94782   1.96015
 Alpha virt. eigenvalues --    1.96540   1.97597   1.99081   1.99347   2.00654
 Alpha virt. eigenvalues --    2.01815   2.02157   2.02792   2.03304   2.04425
 Alpha virt. eigenvalues --    2.05007   2.06205   2.07470   2.08550   2.09095
 Alpha virt. eigenvalues --    2.09289   2.10834   2.11755   2.14507   2.14563
 Alpha virt. eigenvalues --    2.15666   2.16392   2.16983   2.18332   2.20375
 Alpha virt. eigenvalues --    2.23033   2.23487   2.24574   2.25857   2.27036
 Alpha virt. eigenvalues --    2.27690   2.29317   2.32422   2.32778   2.34480
 Alpha virt. eigenvalues --    2.35624   2.36706   2.39330   2.40204   2.40862
 Alpha virt. eigenvalues --    2.41504   2.42584   2.45651   2.46550   2.48214
 Alpha virt. eigenvalues --    2.49229   2.51341   2.52301   2.53084   2.53941
 Alpha virt. eigenvalues --    2.54864   2.55523   2.56872   2.58298   2.59915
 Alpha virt. eigenvalues --    2.61427   2.61827   2.64253   2.67253   2.67712
 Alpha virt. eigenvalues --    2.69773   2.70747   2.73124   2.74152   2.75384
 Alpha virt. eigenvalues --    2.77421   2.79496   2.82138   2.84156   2.89822
 Alpha virt. eigenvalues --    2.90408   2.93221   2.94668   2.98032   2.99103
 Alpha virt. eigenvalues --    3.02462   3.04848   3.07639   3.10787   3.13571
 Alpha virt. eigenvalues --    3.15925   3.23011   3.24388   3.26430   3.36684
 Alpha virt. eigenvalues --    3.52662   3.55358   3.56861   3.59169   3.60450
 Alpha virt. eigenvalues --    3.62875   3.67329   3.67534   3.69412   3.75418
 Alpha virt. eigenvalues --    3.83882   3.86142   3.86690   3.95064   4.04614
 Alpha virt. eigenvalues --    4.07688   4.19088
          Condensed to atoms (all electrons):
               1          2          3          4          5          6
     1  C    8.297517  -0.358458  -1.483269  -0.109896  -1.156990  -0.022934
     2  H   -0.358458   2.185711  -0.083517  -0.015834   0.137253   0.017336
     3  C   -1.483269  -0.083517   8.846571  -0.280519  -2.735165  -0.194883
     4  H   -0.109896  -0.015834  -0.280519   2.152314   0.198330   0.017549
     5  C   -1.156990   0.137253  -2.735165   0.198330  13.594579  -0.024226
     6  H   -0.022934   0.017336  -0.194883   0.017549  -0.024226   2.580319
     7  N   -0.106329   0.074965   0.904018  -0.214267  -1.768683  -0.214081
     8  N    0.482593  -0.241380   0.074132   0.041677  -1.022950  -0.534092
     9  C   -0.167103  -0.057692  -0.095288   0.005366  -0.339239   0.106764
    10  H    0.138570  -0.002389   0.040432   0.005884  -0.363001  -0.047628
    11  H    0.233061  -0.037901  -0.081727  -0.005198   0.140850   0.043933
    12  H   -0.273546   0.004876   0.003347  -0.002252   0.377703   0.025846
    13  C   -0.237830   0.036090   0.211039  -0.134204  -0.782743  -0.079805
    14  H    0.124961   0.006452   0.095060  -0.039710  -0.038033   0.021781
    15  H   -0.074578  -0.001782  -0.087653  -0.004417   0.273854   0.018306
    16  C    0.026671  -0.008946  -0.063618   0.040125  -0.058327   0.031838
    17  H   -0.024236   0.001534  -0.015025  -0.032706   0.062329  -0.004613
    18  H    0.016454  -0.000561  -0.012558   0.004857   0.126924   0.029842
    19  H    0.026631   0.000154  -0.043395   0.006447   0.014760   0.014551
    20  C    0.001997  -0.000264   0.026453  -0.000350  -0.212269  -0.059588
    21  O   -0.026137  -0.000744   0.027373   0.000272  -0.154687   0.071685
    22  O    0.005070   0.001672   0.014893  -0.000805  -0.061699   0.027830
    23  C    0.004667   0.000155   0.005476  -0.000189  -0.139599  -0.003824
    24  H    0.001471   0.000090  -0.000503  -0.000088   0.003794  -0.012019
    25  H   -0.000579  -0.000094   0.001526   0.000108   0.003316   0.005235
    26  H    0.000521   0.000014  -0.000409  -0.000131  -0.014582   0.004369
    27  H    0.001011  -0.002381  -0.002182  -0.000096   0.044468   0.013757
    28  O   -0.059588   0.014155   0.079830   0.004711  -0.239760  -0.005089
    29  H   -0.027795   0.006805   0.064287   0.000351  -0.161294  -0.038215
               7          8          9         10         11         12
     1  C   -0.106329   0.482593  -0.167103   0.138570   0.233061  -0.273546
     2  H    0.074965  -0.241380  -0.057692  -0.002389  -0.037901   0.004876
     3  C    0.904018   0.074132  -0.095288   0.040432  -0.081727   0.003347
     4  H   -0.214267   0.041677   0.005366   0.005884  -0.005198  -0.002252
     5  C   -1.768683  -1.022950  -0.339239  -0.363001   0.140850   0.377703
     6  H   -0.214081  -0.534092   0.106764  -0.047628   0.043933   0.025846
     7  N    8.189055  -0.426659  -0.141390   0.120879  -0.126982   0.049932
     8  N   -0.426659   8.280575   0.514125   0.385461  -0.436510  -0.218078
     9  C   -0.141390   0.514125   4.248991  -0.002556   0.340415   0.263038
    10  H    0.120879   0.385461  -0.002556   1.645885  -0.433812  -0.341990
    11  H   -0.126982  -0.436510   0.340415  -0.433812   2.195845  -0.453251
    12  H    0.049932  -0.218078   0.263038  -0.341990  -0.453251   1.845693
    13  C    0.720391  -0.165543  -0.037501  -0.004712  -0.003493   0.012918
    14  H   -0.422718  -0.159338  -0.009072  -0.000507   0.000733   0.000471
    15  H   -0.112348   0.106860   0.014848  -0.000224  -0.000695   0.002641
    16  C    0.039548   0.027160   0.008705  -0.001246   0.002446  -0.003514
    17  H    0.002975   0.034702   0.006249  -0.000706   0.000239   0.000842
    18  H   -0.160897  -0.087464  -0.017456   0.000947   0.000285  -0.003414
    19  H    0.051026  -0.009071   0.000793   0.000632   0.000100  -0.000261
    20  C    0.086344   0.049250  -0.001279   0.026511  -0.020658   0.019871
    21  O    0.055498   0.005497   0.004873  -0.000653   0.002388  -0.007374
    22  O   -0.008405   0.015078   0.003446  -0.007890   0.001163  -0.010841
    23  C    0.037482   0.020536  -0.002809   0.007123  -0.001945   0.003954
    24  H   -0.000219   0.002194  -0.000040   0.000786  -0.000205   0.000769
    25  H    0.002220   0.000693   0.002004  -0.000047  -0.000163   0.000605
    26  H    0.001016  -0.000038  -0.000221   0.000173  -0.000031  -0.000730
    27  H   -0.017068   0.007305   0.002599  -0.001301   0.001457   0.000018
    28  O    0.039206  -0.010794   0.004593   0.016268  -0.008378   0.009583
    29  H    0.030500   0.025439   0.004261  -0.002731  -0.005213   0.000509
              13         14         15         16         17         18
     1  C   -0.237830   0.124961  -0.074578   0.026671  -0.024236   0.016454
     2  H    0.036090   0.006452  -0.001782  -0.008946   0.001534  -0.000561
     3  C    0.211039   0.095060  -0.087653  -0.063618  -0.015025  -0.012558
     4  H   -0.134204  -0.039710  -0.004417   0.040125  -0.032706   0.004857
     5  C   -0.782743  -0.038033   0.273854  -0.058327   0.062329   0.126924
     6  H   -0.079805   0.021781   0.018306   0.031838  -0.004613   0.029842
     7  N    0.720391  -0.422718  -0.112348   0.039548   0.002975  -0.160897
     8  N   -0.165543  -0.159338   0.106860   0.027160   0.034702  -0.087464
     9  C   -0.037501  -0.009072   0.014848   0.008705   0.006249  -0.017456
    10  H   -0.004712  -0.000507  -0.000224  -0.001246  -0.000706   0.000947
    11  H   -0.003493   0.000733  -0.000695   0.002446   0.000239   0.000285
    12  H    0.012918   0.000471   0.002641  -0.003514   0.000842  -0.003414
    13  C    5.441865   0.089447  -0.387553   0.138519  -0.098824   0.059681
    14  H    0.089447   2.882164  -0.753113  -0.100449  -0.145091   0.202352
    15  H   -0.387553  -0.753113   2.556567   0.011349   0.156939  -0.167433
    16  C    0.138519  -0.100449   0.011349   4.191576   0.089770   0.402026
    17  H   -0.098824  -0.145091   0.156939   0.089770   1.976397  -0.438520
    18  H    0.059681   0.202352  -0.167433   0.402026  -0.438520   2.194948
    19  H    0.103738  -0.129474  -0.091229   0.073730  -0.361621  -0.479044
    20  C   -0.057000  -0.003521   0.060847  -0.005948   0.033332  -0.124814
    21  O    0.025305  -0.003369  -0.019844  -0.002688  -0.005350   0.025949
    22  O    0.040238   0.003949  -0.012550  -0.001888  -0.000911   0.055136
    23  C   -0.027314   0.002926  -0.012931  -0.019670   0.004958  -0.071232
    24  H    0.004405   0.000520   0.000186  -0.003276   0.000330   0.001688
    25  H   -0.002593  -0.000467   0.000655   0.000966   0.000056  -0.014050
    26  H    0.001416   0.001251  -0.001176   0.000859   0.000826   0.008727
    27  H   -0.004375   0.000534  -0.000881  -0.009024   0.000528  -0.013506
    28  O    0.063023   0.002927  -0.001971  -0.020279  -0.001436   0.035536
    29  H    0.028923  -0.007972   0.009159   0.011783   0.004829  -0.004857
              19         20         21         22         23         24
     1  C    0.026631   0.001997  -0.026137   0.005070   0.004667   0.001471
     2  H    0.000154  -0.000264  -0.000744   0.001672   0.000155   0.000090
     3  C   -0.043395   0.026453   0.027373   0.014893   0.005476  -0.000503
     4  H    0.006447  -0.000350   0.000272  -0.000805  -0.000189  -0.000088
     5  C    0.014760  -0.212269  -0.154687  -0.061699  -0.139599   0.003794
     6  H    0.014551  -0.059588   0.071685   0.027830  -0.003824  -0.012019
     7  N    0.051026   0.086344   0.055498  -0.008405   0.037482  -0.000219
     8  N   -0.009071   0.049250   0.005497   0.015078   0.020536   0.002194
     9  C    0.000793  -0.001279   0.004873   0.003446  -0.002809  -0.000040
    10  H    0.000632   0.026511  -0.000653  -0.007890   0.007123   0.000786
    11  H    0.000100  -0.020658   0.002388   0.001163  -0.001945  -0.000205
    12  H   -0.000261   0.019871  -0.007374  -0.010841   0.003954   0.000769
    13  C    0.103738  -0.057000   0.025305   0.040238  -0.027314   0.004405
    14  H   -0.129474  -0.003521  -0.003369   0.003949   0.002926   0.000520
    15  H   -0.091229   0.060847  -0.019844  -0.012550  -0.012931   0.000186
    16  C    0.073730  -0.005948  -0.002688  -0.001888  -0.019670  -0.003276
    17  H   -0.361621   0.033332  -0.005350  -0.000911   0.004958   0.000330
    18  H   -0.479044  -0.124814   0.025949   0.055136  -0.071232   0.001688
    19  H    2.074223   0.027096   0.000941  -0.005447   0.010950  -0.000388
    20  C    0.027096   5.586775   0.192178   0.163928  -0.236290   0.175110
    21  O    0.000941   0.192178   8.696404  -0.022835  -0.179070   0.039656
    22  O   -0.005447   0.163928  -0.022835   8.764330  -0.189291  -0.092273
    23  C    0.010950  -0.236290  -0.179070  -0.189291   5.207895   0.047579
    24  H   -0.000388   0.175110   0.039656  -0.092273   0.047579   1.445675
    25  H    0.001304   0.149019   0.011726  -0.001728   0.202310  -0.123879
    26  H   -0.001180   0.087537  -0.068967   0.055584   0.158225  -0.230745
    27  H    0.001381   0.006321   0.000307  -0.010178   0.004612   0.000873
    28  O   -0.000250   0.013471   0.003763  -0.050130  -0.007792   0.000676
    29  H   -0.008296  -0.008982  -0.001827   0.053907  -0.019415  -0.004863
              25         26         27         28         29
     1  C   -0.000579   0.000521   0.001011  -0.059588  -0.027795
     2  H   -0.000094   0.000014  -0.002381   0.014155   0.006805
     3  C    0.001526  -0.000409  -0.002182   0.079830   0.064287
     4  H    0.000108  -0.000131  -0.000096   0.004711   0.000351
     5  C    0.003316  -0.014582   0.044468  -0.239760  -0.161294
     6  H    0.005235   0.004369   0.013757  -0.005089  -0.038215
     7  N    0.002220   0.001016  -0.017068   0.039206   0.030500
     8  N    0.000693  -0.000038   0.007305  -0.010794   0.025439
     9  C    0.002004  -0.000221   0.002599   0.004593   0.004261
    10  H   -0.000047   0.000173  -0.001301   0.016268  -0.002731
    11  H   -0.000163  -0.000031   0.001457  -0.008378  -0.005213
    12  H    0.000605  -0.000730   0.000018   0.009583   0.000509
    13  C   -0.002593   0.001416  -0.004375   0.063023   0.028923
    14  H   -0.000467   0.001251   0.000534   0.002927  -0.007972
    15  H    0.000655  -0.001176  -0.000881  -0.001971   0.009159
    16  C    0.000966   0.000859  -0.009024  -0.020279   0.011783
    17  H    0.000056   0.000826   0.000528  -0.001436   0.004829
    18  H   -0.014050   0.008727  -0.013506   0.035536  -0.004857
    19  H    0.001304  -0.001180   0.001381  -0.000250  -0.008296
    20  C    0.149019   0.087537   0.006321   0.013471  -0.008982
    21  O    0.011726  -0.068967   0.000307   0.003763  -0.001827
    22  O   -0.001728   0.055584  -0.010178  -0.050130   0.053907
    23  C    0.202310   0.158225   0.004612  -0.007792  -0.019415
    24  H   -0.123879  -0.230745   0.000873   0.000676  -0.004863
    25  H    1.077455  -0.160916   0.000255  -0.000251   0.003106
    26  H   -0.160916   1.396356  -0.000482   0.000389   0.002189
    27  H    0.000255  -0.000482   0.717462   0.329847  -0.153141
    28  O   -0.000251   0.000389   0.329847   7.985840   0.273456
    29  H    0.003106   0.002189  -0.153141   0.273456   0.553704
 Mulliken charges:
               1
     1  C    0.768073
     2  H   -0.675318
     3  C    0.785275
     4  H   -0.637326
     5  C    0.295087
     6  H   -0.789944
     7  N    0.314992
     8  N    0.238639
     9  C    1.340578
    10  H   -0.178157
    11  H   -0.346756
    12  H   -0.307366
    13  C    1.046494
    14  H   -0.622692
    15  H   -0.481831
    16  C    1.201802
    17  H   -0.247795
    18  H   -0.569547
    19  H   -0.278800
    20  C    0.024923
    21  O   -0.670269
    22  O   -0.729354
    23  C    1.192522
    24  H   -0.257304
    25  H   -0.157792
    26  H   -0.239844
    27  H    0.081878
    28  O   -0.471558
    29  H    0.371392
 Sum of Mulliken charges =   0.00000
 Mulliken charges with hydrogens summed into heavy atoms:
               1
     1  C    0.092755
     3  C    0.147948
     5  C   -0.494857
     7  N    0.314992
     8  N    0.238639
     9  C    0.508298
    13  C   -0.058029
    16  C    0.105660
    20  C    0.024923
    21  O   -0.670269
    22  O   -0.729354
    23  C    0.537582
    28  O   -0.018288
 Electronic spatial extent (au):  <R**2>=           2723.5574
 Charge=              0.0000 electrons
 Dipole moment (field-independent basis, Debye):
    X=              7.2581    Y=              0.3983    Z=             -0.3368  Tot=              7.2768
 Quadrupole moment (field-independent basis, Debye-Ang):
   XX=            -76.3729   YY=            -66.8340   ZZ=            -82.8352
   XY=             -2.7895   XZ=             -2.4023   YZ=              3.8585
 Traceless Quadrupole moment (field-independent basis, Debye-Ang):
   XX=             -1.0255   YY=              8.5133   ZZ=             -7.4878
   XY=             -2.7895   XZ=             -2.4023   YZ=              3.8585
 Octapole moment (field-independent basis, Debye-Ang**2):
  XXX=             47.5108  YYY=             -7.9371  ZZZ=             29.3990  XYY=             21.2544
  XXY=             -4.9795  XXZ=              9.0018  XZZ=              4.1552  YZZ=             -1.4989
  YYZ=             -7.8300  XYZ=             -3.7540
 Hexadecapole moment (field-independent basis, Debye-Ang**3):
 XXXX=          -2051.3355 YYYY=           -948.8310 ZZZZ=           -387.2692 XXXY=            -22.6744
 XXXZ=             20.4682 YYYX=            -25.4719 YYYZ=              1.5396 ZZZX=             -6.2152
 ZZZY=             -9.0271 XXYY=           -483.9124 XXZZ=           -476.2957 YYZZ=           -249.5217
 XXYZ=             16.5216 YYXZ=              2.2154 ZZXY=             -0.3123
 N-N= 8.800870454393D+02 E-N=-3.276820841968D+03  KE= 6.454875728249D+02
 Calling FoFJK, ICntrl=      2127 FMM=F ISym2X=0 I1Cent= 0 IOpClX= 0 NMat=1 NMatS=1 NMatT=0.
 ***** Axes restored to original set *****
 -------------------------------------------------------------------
 Center     Atomic                   Forces (Hartrees/Bohr)
 Number     Number              X              Y              Z
 -------------------------------------------------------------------
      1        6          -0.000033100   -0.000785834    0.000387744
      2        1           0.000062379   -0.000009880    0.000030478
      3        6           0.000033939    0.000088835    0.000815899
      4        1          -0.000181615   -0.000020916   -0.000299825
      5        6           0.000182580   -0.002778194   -0.002127535
      6        1          -0.000773176    0.001980676    0.001124807
      7        7           0.000023423    0.000143146   -0.002261638
      8        7           0.000566032    0.000503778    0.001569866
      9        6           0.000526540    0.000638679   -0.000596959
     10        1           0.000057584   -0.000009102    0.000405568
     11        1          -0.000122075    0.000110587   -0.000216439
     12        1           0.000098125   -0.000166288   -0.000128360
     13        6          -0.000164979    0.000104758    0.000633163
     14        1           0.000112486   -0.000154196    0.000036685
     15        1           0.000055052    0.000083121   -0.000084959
     16        6           0.000507313   -0.000404060   -0.000028504
     17        1           0.000191189    0.000119070   -0.000079479
     18        1          -0.000208766   -0.000439192   -0.000036898
     19        1          -0.000096397   -0.000196577   -0.000161953
     20        6           0.000321502   -0.000635751   -0.000590303
     21        8          -0.000205338    0.000334250    0.000749628
     22        8          -0.002019798   -0.000029739    0.000501728
     23        6          -0.000312576   -0.000084141   -0.000339725
     24        1           0.000094194   -0.000048621    0.000025534
     25        1           0.000054686    0.000071829   -0.000004542
     26        1           0.000681737   -0.000152898   -0.000095109
     27        1           0.000234958    0.000563940   -0.000254871
     28        8          -0.000076906    0.000900251    0.000413315
     29        1           0.000391006    0.000272466    0.000612684
 -------------------------------------------------------------------
 Cartesian Forces:  Max     0.002778194 RMS     0.000670408

 GradGradGradGradGradGradGradGradGradGradGradGradGradGradGradGradGradGrad
 Berny optimization.
 FormGI is forming the generalized inverse of G from B-inverse, IUseBI=4.
 Internal  Forces:  Max     0.008319248 RMS     0.001524417
 Search for a local minimum.
 Step number   1 out of a maximum of  142
 All quantities printed in internal units (Hartrees-Bohrs-Radians)
 Mixed Optimization -- RFO/linear search
 Second derivative matrix not updated -- first step.
 ITU=  0
     Eigenvalues ---    0.00230   0.00230   0.00230   0.00464   0.00485
     Eigenvalues ---    0.00773   0.00960   0.01117   0.01117   0.01626
     Eigenvalues ---    0.01815   0.01839   0.01995   0.02239   0.02251
     Eigenvalues ---    0.02408   0.02515   0.03501   0.03532   0.04518
     Eigenvalues ---    0.05360   0.05718   0.05912   0.06198   0.07119
     Eigenvalues ---    0.07561   0.07725   0.07851   0.07902   0.09262
     Eigenvalues ---    0.12567   0.15975   0.15999   0.16000   0.16000
     Eigenvalues ---    0.16000   0.16000   0.16000   0.16000   0.16000
     Eigenvalues ---    0.16000   0.16000   0.16000   0.16000   0.16000
     Eigenvalues ---    0.16000   0.22007   0.22757   0.23418   0.23931
     Eigenvalues ---    0.24684   0.24994   0.24998   0.25000   0.30094
     Eigenvalues ---    0.30246   0.32896   0.33916   0.34091   0.34110
     Eigenvalues ---    0.34186   0.34222   0.34304   0.34382   0.34425
     Eigenvalues ---    0.34431   0.34481   0.34558   0.35807   0.35819
     Eigenvalues ---    0.35837   0.37557   0.44381   0.46678   0.48885
     Eigenvalues ---    0.50433   0.55359   0.56437   0.57549   0.78542
     Eigenvalues ---    0.79329
 RFO step:  Lambda=-9.87810821D-03 EMin= 2.30000000D-03
 Linear search not attempted -- first point.
 Iteration  1 RMS(Cart)=  0.29036142 RMS(Int)=  0.05379753
 Iteration  2 RMS(Cart)=  0.31353538 RMS(Int)=  0.03550822
 Iteration  3 RMS(Cart)=  0.20150565 RMS(Int)=  0.01519026
 Iteration  4 RMS(Cart)=  0.11799955 RMS(Int)=  0.00268616
 Iteration  5 RMS(Cart)=  0.00692403 RMS(Int)=  0.00007167
 Iteration  6 RMS(Cart)=  0.00001206 RMS(Int)=  0.00007155
 Iteration  7 RMS(Cart)=  0.00000000 RMS(Int)=  0.00007155
 Iteration  1 RMS(Cart)=  0.28709144 RMS(Int)=  0.04667934
 Iteration  2 RMS(Cart)=  0.30304760 RMS(Int)=  0.02877939
 Iteration  3 RMS(Cart)=  0.18283866 RMS(Int)=  0.00896766
 Iteration  4 RMS(Cart)=  0.05952335 RMS(Int)=  0.00069213
 Iteration  5 RMS(Cart)=  0.00185846 RMS(Int)=  0.00005791
 Iteration  6 RMS(Cart)=  0.00000100 RMS(Int)=  0.00005791
 ITry= 2 IFail=0 DXMaxC= 4.73D+00 DCOld= 5.15D+00 DXMaxT= 3.00D-01 DXLimC= 3.00D+00 Rises=F
 Iteration  1 RMS(Cart)=  0.28338696 RMS(Int)=  0.03966373
 Iteration  2 RMS(Cart)=  0.28976905 RMS(Int)=  0.02201358
 Iteration  3 RMS(Cart)=  0.16904286 RMS(Int)=  0.00495484
 Iteration  4 RMS(Cart)=  0.01264607 RMS(Int)=  0.00004775
 Iteration  5 RMS(Cart)=  0.00003366 RMS(Int)=  0.00004571
 Iteration  6 RMS(Cart)=  0.00000000 RMS(Int)=  0.00004571
 ITry= 3 IFail=0 DXMaxC= 4.29D+00 DCOld= 4.73D+00 DXMaxT= 3.00D-01 DXLimC= 3.00D+00 Rises=F
 Iteration  1 RMS(Cart)=  0.27925917 RMS(Int)=  0.03280587
 Iteration  2 RMS(Cart)=  0.27320484 RMS(Int)=  0.01551958
 Iteration  3 RMS(Cart)=  0.10006322 RMS(Int)=  0.00174788
 Iteration  4 RMS(Cart)=  0.00499245 RMS(Int)=  0.00003501
 Iteration  5 RMS(Cart)=  0.00000663 RMS(Int)=  0.00003497
 Iteration  6 RMS(Cart)=  0.00000000 RMS(Int)=  0.00003497
 ITry= 4 IFail=0 DXMaxC= 3.81D+00 DCOld= 4.29D+00 DXMaxT= 3.00D-01 DXLimC= 3.00D+00 Rises=F
 Iteration  1 RMS(Cart)=  0.27406258 RMS(Int)=  0.02620515
 Iteration  2 RMS(Cart)=  0.24325456 RMS(Int)=  0.00996418
 Iteration  3 RMS(Cart)=  0.04468961 RMS(Int)=  0.00031784
 Iteration  4 RMS(Cart)=  0.00108324 RMS(Int)=  0.00002567
 Iteration  5 RMS(Cart)=  0.00000034 RMS(Int)=  0.00002567
 ITry= 5 IFail=0 DXMaxC= 3.31D+00 DCOld= 3.81D+00 DXMaxT= 3.00D-01 DXLimC= 3.00D+00 Rises=F
 Iteration  1 RMS(Cart)=  0.25918468 RMS(Int)=  0.01979816
 Iteration  2 RMS(Cart)=  0.20861788 RMS(Int)=  0.00657464
 Iteration  3 RMS(Cart)=  0.01817426 RMS(Int)=  0.00003465
 Iteration  4 RMS(Cart)=  0.00008259 RMS(Int)=  0.00001781
 Iteration  5 RMS(Cart)=  0.00000001 RMS(Int)=  0.00001781
 ITry= 6 IFail=0 DXMaxC= 2.79D+00 DCOld= 3.31D+00 DXMaxT= 3.00D-01 DXLimC= 3.00D+00 Rises=F
 Variable       Old X    -DE/DX   Delta X   Delta X   Delta X     New X
                                 (Linear)    (Quad)   (Total)
    R1        2.04337  -0.00005   0.00000  -0.00013  -0.00007   2.04330
    R2        2.57483   0.00012   0.00000   0.00033   0.00016   2.57500
    R3        2.60053   0.00052   0.00000   0.00107   0.00053   2.60106
    R4        2.04365   0.00005   0.00000   0.00013   0.00007   2.04371
    R5        2.59729   0.00033   0.00000   0.00066   0.00033   2.59762
    R6        2.09234  -0.00177   0.00000  -0.00523  -0.00262   2.08973
    R7        2.51618   0.00016   0.00000   0.00019   0.00009   2.51627
    R8        2.51847  -0.00046   0.00000  -0.00083  -0.00042   2.51806
    R9        3.38781  -0.00125   0.00000  -0.01741  -0.00870   3.37910
   R10        2.77684   0.00095   0.00000   0.00258   0.00129   2.77813
   R11        2.75015   0.00062   0.00000   0.00161   0.00080   2.75096
   R12        2.06820   0.00040   0.00000   0.00113   0.00057   2.06876
   R13        2.06525   0.00022   0.00000   0.00062   0.00031   2.06556
   R14        2.06398   0.00011   0.00000   0.00031   0.00016   2.06414
   R15        2.06958   0.00003   0.00000   0.00010   0.00005   2.06963
   R16        2.06609   0.00011   0.00000   0.00031   0.00016   2.06625
   R17        2.87475   0.00005   0.00000   0.00015   0.00008   2.87482
   R18        2.07177  -0.00019   0.00000  -0.00055  -0.00028   2.07150
   R19        2.07145  -0.00047   0.00000  -0.00134  -0.00067   2.07078
   R20        2.07018   0.00012   0.00000   0.00035   0.00018   2.07035
   R21        2.38279   0.00034   0.00000   0.00042   0.00021   2.38300
   R22        2.38712   0.00233   0.00000   0.00293   0.00147   2.38858
   R23        2.87776   0.00049   0.00000   0.00158   0.00079   2.87855
   R24        3.15164  -0.00032   0.00000  -0.00364  -0.00182   3.14982
   R25        2.06690   0.00006   0.00000   0.00017   0.00008   2.06699
   R26        2.07472   0.00007   0.00000   0.00021   0.00011   2.07483
   R27        2.06619   0.00046   0.00000   0.00129   0.00064   2.06683
   R28        1.81514  -0.00026   0.00000  -0.00047  -0.00023   1.81491
   R29        1.87707  -0.00017   0.00000  -0.00035  -0.00017   1.87690
    A1        2.28789  -0.00006   0.00000  -0.00030  -0.00015   2.28774
    A2        2.13143  -0.00009   0.00000  -0.00048  -0.00024   2.13119
    A3        1.86382   0.00016   0.00000   0.00083   0.00041   1.86424
    A4        2.28717  -0.00011   0.00000  -0.00057  -0.00029   2.28688
    A5        1.86241   0.00010   0.00000   0.00049   0.00024   1.86265
    A6        2.13360   0.00001   0.00000   0.00013   0.00006   2.13366
    A7        2.10942   0.00026   0.00000   0.00236   0.00118   2.11060
    A8        2.28815  -0.00112   0.00000  -0.00569  -0.00284   2.28531
    A9        1.88469   0.00085   0.00000   0.00313   0.00156   1.88625
   A10        2.66063  -0.00547   0.00000  -0.02104  -0.01052   2.65011
   A11        1.90832  -0.00059   0.00000  -0.00230  -0.00115   1.90717
   A12        2.22051  -0.00022   0.00000  -0.00045  -0.00023   2.22028
   A13        2.14668   0.00083   0.00000   0.00368   0.00184   2.14852
   A14        1.90521  -0.00053   0.00000  -0.00243  -0.00122   1.90399
   A15        2.18735   0.00120   0.00000   0.00478   0.00239   2.18975
   A16        2.16336  -0.00068   0.00000  -0.00276  -0.00138   2.16198
   A17        1.88988  -0.00007   0.00000  -0.00026  -0.00013   1.88975
   A18        1.90633   0.00007   0.00000   0.00051   0.00025   1.90659
   A19        1.89610  -0.00032   0.00000  -0.00213  -0.00107   1.89504
   A20        1.93830   0.00011   0.00000   0.00112   0.00056   1.93886
   A21        1.91348   0.00015   0.00000   0.00076   0.00038   1.91386
   A22        1.91902   0.00005   0.00000  -0.00008  -0.00004   1.91898
   A23        1.86450  -0.00075   0.00000  -0.00217  -0.00108   1.86342
   A24        1.86149  -0.00076   0.00000  -0.00209  -0.00105   1.86044
   A25        1.92613   0.00246   0.00000   0.01163   0.00581   1.93194
   A26        1.91719   0.00033   0.00000  -0.00146  -0.00073   1.91645
   A27        1.96581  -0.00075   0.00000  -0.00380  -0.00190   1.96391
   A28        1.92497  -0.00053   0.00000  -0.00196  -0.00098   1.92398
   A29        1.93708   0.00013   0.00000   0.00085   0.00042   1.93750
   A30        1.90667   0.00019   0.00000   0.00126   0.00063   1.90730
   A31        1.90679  -0.00036   0.00000  -0.00234  -0.00117   1.90562
   A32        1.90274  -0.00011   0.00000  -0.00021  -0.00010   1.90264
   A33        1.90622   0.00008   0.00000   0.00014   0.00007   1.90629
   A34        1.90405   0.00007   0.00000   0.00031   0.00016   1.90420
   A35        2.18896   0.00445   0.00000   0.01674   0.00829   2.19725
   A36        2.05233  -0.00246   0.00000  -0.00977  -0.00496   2.04736
   A37        2.04160  -0.00201   0.00000  -0.00803  -0.00409   2.03751
   A38        1.76381   0.00288   0.00000   0.01696   0.00848   1.77229
   A39        2.42109   0.00832   0.00000   0.04897   0.02449   2.44557
   A40        1.93000  -0.00008   0.00000  -0.00071  -0.00036   1.92964
   A41        1.88640  -0.00006   0.00000  -0.00041  -0.00021   1.88619
   A42        1.92020   0.00079   0.00000   0.00497   0.00248   1.92269
   A43        1.89074  -0.00006   0.00000  -0.00100  -0.00050   1.89024
   A44        1.94543  -0.00036   0.00000  -0.00201  -0.00100   1.94443
   A45        1.88940  -0.00024   0.00000  -0.00091  -0.00045   1.88894
   A46        1.82639  -0.00057   0.00000  -0.00335  -0.00167   1.82471
   A47        3.15096   0.00156   0.00000   0.07412   0.03706   3.18802
   A48        3.16816   0.00226   0.00000   0.10714   0.05357   3.22173
    D1        0.00835   0.00020   0.00000   0.00505   0.00252   0.01088
    D2       -3.12849  -0.00014   0.00000  -0.00455  -0.00227  -3.13076
    D3        3.14028   0.00038   0.00000   0.01095   0.00547  -3.13744
    D4        0.00343   0.00004   0.00000   0.00135   0.00068   0.00411
    D5        3.11576  -0.00009   0.00000  -0.00219  -0.00109   3.11466
    D6        0.21587   0.00008   0.00000   0.00014   0.00007   0.21593
    D7       -0.01723  -0.00025   0.00000  -0.00744  -0.00372  -0.02095
    D8       -2.91712  -0.00008   0.00000  -0.00512  -0.00256  -2.91968
    D9        0.01152   0.00018   0.00000   0.00520   0.00260   0.01412
   D10        3.02228   0.00047   0.00000   0.01337   0.00668   3.02895
   D11       -3.12583  -0.00012   0.00000  -0.00336  -0.00168  -3.12751
   D12       -0.11508   0.00017   0.00000   0.00481   0.00240  -0.11268
   D13       -0.33373  -0.00394   0.00000  -0.32661  -0.16331  -0.49704
   D14        2.75555  -0.00408   0.00000  -0.33222  -0.16611   2.58944
   D15        3.07782  -0.00051   0.00000  -0.01461  -0.00731   3.07051
   D16        0.06041  -0.00069   0.00000  -0.02202  -0.01102   0.04939
   D17       -0.02234  -0.00035   0.00000  -0.00992  -0.00496  -0.02730
   D18       -3.03975  -0.00053   0.00000  -0.01733  -0.00867  -3.04842
   D19       -3.06989   0.00050   0.00000   0.01581   0.00790  -3.06199
   D20       -0.16595   0.00065   0.00000   0.01479   0.00739  -0.15855
   D21        0.02450   0.00037   0.00000   0.01076   0.00538   0.02988
   D22        2.92844   0.00052   0.00000   0.00975   0.00488   2.93332
   D23       -1.73004  -0.00787   0.00000  -0.64603  -0.32301  -2.05306
   D24        0.61480   0.00005   0.00000  -0.00274  -0.00137   0.61343
   D25        2.66439  -0.00032   0.00000  -0.00653  -0.00327   2.66112
   D26       -1.52770  -0.00004   0.00000  -0.00367  -0.00184  -1.52953
   D27       -2.67411   0.00026   0.00000   0.00600   0.00300  -2.67110
   D28       -0.62451  -0.00011   0.00000   0.00221   0.00110  -0.62341
   D29        1.46658   0.00017   0.00000   0.00507   0.00254   1.46912
   D30        1.31498  -0.00006   0.00000  -0.00343  -0.00171   1.31327
   D31       -0.79792  -0.00019   0.00000  -0.00494  -0.00247  -0.80038
   D32       -2.89116  -0.00010   0.00000  -0.00387  -0.00194  -2.89310
   D33       -1.55055   0.00006   0.00000  -0.00104  -0.00052  -1.55107
   D34        2.61973  -0.00007   0.00000  -0.00255  -0.00127   2.61846
   D35        0.52649   0.00002   0.00000  -0.00148  -0.00074   0.52574
   D36        1.01886  -0.00002   0.00000  -0.00430  -0.00215   1.01671
   D37       -1.07971  -0.00010   0.00000  -0.00539  -0.00270  -1.08240
   D38        3.12183  -0.00008   0.00000  -0.00512  -0.00256   3.11927
   D39       -1.06319  -0.00028   0.00000  -0.00702  -0.00351  -1.06670
   D40        3.12143  -0.00035   0.00000  -0.00811  -0.00405   3.11737
   D41        1.03978  -0.00033   0.00000  -0.00784  -0.00392   1.03586
   D42        3.07122   0.00022   0.00000  -0.00097  -0.00049   3.07073
   D43        0.97265   0.00015   0.00000  -0.00206  -0.00103   0.97162
   D44       -1.10900   0.00017   0.00000  -0.00179  -0.00089  -1.10989
   D45        0.36861  -0.00454   0.00000  -0.10890  -0.05450   0.31411
   D46       -2.74596  -0.00312   0.00000  -0.06047  -0.03018  -2.77614
   D47        0.29135  -0.00021   0.00000   0.00375   0.00193   0.29328
   D48       -2.87711  -0.00162   0.00000  -0.04445  -0.02228  -2.89940
   D49       -2.65918  -0.00065   0.00000  -0.02231  -0.01111  -2.67030
   D50        1.55708  -0.00050   0.00000  -0.02044  -0.01018   1.54690
   D51       -0.50263  -0.00062   0.00000  -0.02191  -0.01091  -0.51354
   D52        0.50712   0.00054   0.00000   0.02158   0.01075   0.51787
   D53       -1.55980   0.00070   0.00000   0.02345   0.01168  -1.54812
   D54        2.66367   0.00057   0.00000   0.02198   0.01095   2.67462
   D55        2.36163   0.00092   0.00000   0.07561   0.03781   2.39944
         Item               Value     Threshold  Converged?
 Maximum Force            0.008319     0.000015     NO 
 RMS     Force            0.001524     0.000010     NO 
 Maximum Displacement     2.793281     0.000060     NO 
 RMS     Displacement     0.453729     0.000040     NO 
 Predicted change in Energy=-4.549360D-03
 GradGradGradGradGradGradGradGradGradGradGradGradGradGradGradGradGradGrad

                          Input orientation:                          
 ---------------------------------------------------------------------
 Center     Atomic      Atomic             Coordinates (Angstroms)
 Number     Number       Type             X           Y           Z
 ---------------------------------------------------------------------
      1          6           0       -2.874199    0.331766   -0.070091
      2          1           0       -3.767284    0.865805    0.223755
      3          6           0       -2.643437   -0.999996   -0.243060
      4          1           0       -3.299054   -1.853642   -0.137855
      5          6           0       -0.758248    0.075975   -0.642054
      6          1           0        0.321840    0.190666   -0.849724
      7          7           0       -1.324563   -1.128683   -0.608497
      8          7           0       -1.690082    0.979388   -0.340261
      9          6           0       -1.400182    2.372521   -0.033126
     10          1           0       -1.219551    2.456320    1.043355
     11          1           0       -2.246694    2.992540   -0.339307
     12          1           0       -0.503000    2.670129   -0.580488
     13          6           0       -0.567068   -2.376975   -0.779469
     14          1           0       -1.264653   -3.116580   -1.186683
     15          1           0        0.219081   -2.167652   -1.510018
     16          6           0        0.045755   -2.819014    0.540900
     17          1           0       -0.727519   -2.963175    1.304378
     18          1           0        0.750612   -2.054504    0.886582
     19          1           0        0.584135   -3.761242    0.390379
     20          6           0        2.562591    0.447894   -0.073132
     21          8           0        2.006415   -0.407972   -0.813645
     22          8           0        1.972853    1.242857    0.712933
     23          6           0        4.076234    0.583674   -0.176966
     24          1           0        4.494363    0.951797    0.764340
     25          1           0        4.299276    1.316693   -0.963371
     26          1           0        4.521683   -0.372913   -0.464617
     27          1           0       -0.138408    1.907809    2.786449
     28          8           0       -0.373425    1.658912    1.889119
     29          1           0        0.493742    1.446776    1.453815
 ---------------------------------------------------------------------
                    Distance matrix (angstroms):
                    1          2          3          4          5
     1  C    0.000000
     2  H    1.081269   0.000000
     3  C    1.362630   2.227591   0.000000
     4  H    2.227353   2.783055   1.081486   0.000000
     5  C    2.206766   3.229203   2.207000   3.230067   0.000000
     6  H    3.292780   4.281250   3.252474   4.218629   1.105835
     7  N    2.196398   3.261520   1.374604   2.155386   1.331555
     8  N    1.376422   2.155407   2.199158   3.264325   1.332498
     9  C    2.517692   2.817685   3.600504   4.634343   2.461096
    10  H    2.913992   3.113265   3.953282   4.929033   2.952871
    11  H    2.746990   2.674366   4.013354   4.963217   3.288385
    12  H    3.369129   3.815487   4.262059   5.336511   2.607409
    13  C    3.628133   4.665133   2.548552   2.854697   2.464223
    14  H    3.965918   4.910386   2.696553   2.614162   3.278029
    15  H    4.229523   5.300843   3.341050   3.789289   2.596612
    16  C    4.338992   5.312037   3.339936   3.546886   3.229049
    17  H    4.165818   5.006896   3.149505   3.150221   3.609151
    18  H    4.443958   5.420233   3.729296   4.182058   3.025281
    19  H    5.378180   6.353910   4.294525   4.358569   4.194298
    20  C    5.438031   6.350599   5.406292   6.297630   3.389686
    21  O    4.992041   6.002858   4.721990   5.540276   2.811941
    22  O    4.993709   5.773269   5.220580   6.172937   3.264433
    23  C    6.955817   7.858813   6.904083   7.767684   4.883265
    24  H    7.441533   8.279761   7.468102   8.331974   5.507716
    25  H    7.295668   8.165902   7.354398   8.274487   5.217392
    26  H    7.439845   8.409236   7.195921   7.966384   5.301949
    27  H    4.257732   4.563103   4.889624   5.717494   3.936299
    28  O    3.442919   3.862737   4.094989   5.000596   3.010085
    29  H    3.861160   4.472909   4.325271   5.273658   2.799864
                    6          7          8          9         10
     6  H    0.000000
     7  N    2.123562   0.000000
     8  N    2.220240   2.156275   0.000000
     9  C    2.897012   3.548972   1.455744   0.000000
    10  H    3.330589   3.948657   2.077768   1.094742   0.000000
    11  H    3.835152   4.231698   2.088683   1.093048   1.803970
    12  H    2.626897   3.886737   2.079778   1.092296   1.787743
    13  C    2.718065   1.470123   3.566405   4.879428   5.206647
    14  H    3.683528   2.071140   4.204091   5.610641   6.002693
    15  H    2.451165   2.067615   3.862266   5.041467   5.474531
    16  C    3.326896   2.460915   4.268189   5.419619   5.448175
    17  H    3.960811   2.716783   4.378946   5.541754   5.448042
    18  H    2.870434   2.720065   4.082479   5.007028   4.924800
    19  H    4.150208   3.401653   5.308434   6.460643   6.506746
    20  C    2.385420   4.228732   4.294074   4.405605   4.425485
    21  O    1.788145   3.414224   3.976551   4.466011   4.696752
    22  O    2.504965   4.271222   3.820436   3.634572   3.431198
    23  C    3.834388   5.682164   5.782184   5.762967   5.748159
    24  H    4.538114   6.330322   6.282378   6.115560   5.915257
    25  H    4.135318   6.142749   6.031124   5.870601   5.981902
    26  H    4.254952   5.896650   6.358476   6.541565   6.575737
    27  H    4.047488   4.706687   3.611920   3.123785   2.123232
    28  O    3.184399   3.861792   2.676840   2.293141   1.437744
    29  H    2.629383   3.767274   2.864654   2.579718   2.030525
                   11         12         13         14         15
    11  H    0.000000
    12  H    1.789577   0.000000
    13  C    5.643277   5.051432   0.000000
    14  H    6.245302   5.868014   1.095199   0.000000
    15  H    5.837653   4.978911   1.093411   1.790664   0.000000
    16  C    6.309060   5.629328   1.521291   2.188666   2.158837
    17  H    6.362400   5.944514   2.170666   2.552926   3.074041
    18  H    5.996607   5.103528   2.148487   3.080215   2.457441
    19  H    7.359320   6.594466   2.147092   2.514106   2.506850
    20  C    5.447503   3.820156   4.274759   5.347267   3.794438
    21  O    5.466024   3.978220   3.240519   4.263285   2.603069
    22  O    4.687556   3.136861   4.667082   5.752798   4.432697
    23  C    6.768191   5.048318   5.539739   6.575445   4.921834
    24  H    7.129132   5.452969   6.251573   7.316040   5.760356
    25  H    6.785842   5.004023   6.112145   7.117660   5.393281
    26  H    7.559954   5.875455   5.478211   6.444437   4.777691
    27  H    3.923246   3.471358   5.590966   6.503744   5.932689
    28  O    3.202122   2.671762   4.842236   5.749797   5.152454
    29  H    3.621417   2.574583   4.553455   5.557733   4.682289
                   16         17         18         19         20
    16  C    0.000000
    17  H    1.096190   0.000000
    18  H    1.095808   1.784687   0.000000
    19  H    1.095583   1.786824   1.785185   0.000000
    20  C    4.169435   4.935357   3.235168   4.673966   0.000000
    21  O    3.390001   4.299939   2.679343   3.836271   1.261031
    22  O    4.499122   5.033142   3.520883   5.203228   1.263984
    23  C    5.323380   6.152280   4.376171   5.603118   1.523264
    24  H    5.836014   6.548793   4.802964   6.135345   2.164953
    25  H    6.120405   6.980589   5.232620   6.435863   2.136215
    26  H    5.198886   6.114975   4.344475   5.264606   2.159867
    27  H    5.236340   5.125433   4.483277   6.196882   4.195706
    28  O    4.695234   4.672364   4.007243   5.704490   3.733253
    29  H    4.385324   4.578370   3.556220   5.316250   2.758526
                   21         22         23         24         25
    21  O    0.000000
    22  O    2.248734   0.000000
    23  C    2.381779   2.377110   0.000000
[...]
 Alpha virt. eigenvalues --    0.59074   0.59607   0.60137   0.60686   0.61569
 Alpha virt. eigenvalues --    0.62015   0.62229   0.62765   0.62928   0.63527
 Alpha virt. eigenvalues --    0.64101   0.64339   0.65412   0.65454   0.65681
 Alpha virt. eigenvalues --    0.66648   0.67127   0.67797   0.68338   0.69152
 Alpha virt. eigenvalues --    0.69308   0.69884   0.70088   0.71466   0.71813
 Alpha virt. eigenvalues --    0.72179   0.72311   0.73985   0.74086   0.74665
 Alpha virt. eigenvalues --    0.75509   0.75571   0.76366   0.76809   0.78101
 Alpha virt. eigenvalues --    0.78359   0.78754   0.80018   0.80255   0.80732
 Alpha virt. eigenvalues --    0.81697   0.82137   0.83049   0.84295   0.85016
 Alpha virt. eigenvalues --    0.85721   0.86167   0.86747   0.87855   0.89000
 Alpha virt. eigenvalues --    0.90059   0.91280   0.91782   0.92248   0.94101
 Alpha virt. eigenvalues --    0.95573   0.95780   0.96040   0.96884   0.97488
 Alpha virt. eigenvalues --    0.98897   0.99089   0.99730   1.00624   1.00805
 Alpha virt. eigenvalues --    1.02138   1.02942   1.03958   1.04870   1.05281
 Alpha virt. eigenvalues --    1.05786   1.06360   1.07687   1.08846   1.09816
 Alpha virt. eigenvalues --    1.10876   1.11719   1.12972   1.14692   1.15852
 Alpha virt. eigenvalues --    1.16688   1.17078   1.17822   1.19564   1.20274
 Alpha virt. eigenvalues --    1.21358   1.23239   1.23876   1.24572   1.26882
 Alpha virt. eigenvalues --    1.27635   1.30095   1.32204   1.34239   1.34548
 Alpha virt. eigenvalues --    1.35396   1.37447   1.37790   1.39290   1.39680
 Alpha virt. eigenvalues --    1.40786   1.42066   1.42979   1.43786   1.45029
 Alpha virt. eigenvalues --    1.45497   1.46247   1.47163   1.49260   1.50232
 Alpha virt. eigenvalues --    1.50593   1.52015   1.52893   1.54617   1.56642
 Alpha virt. eigenvalues --    1.56965   1.57632   1.59268   1.60358   1.61216
 Alpha virt. eigenvalues --    1.61808   1.62653   1.63677   1.64304   1.65663
 Alpha virt. eigenvalues --    1.65879   1.66846   1.67655   1.69180   1.70543
 Alpha virt. eigenvalues --    1.71406   1.72043   1.73670   1.75074   1.76348
 Alpha virt. eigenvalues --    1.76882   1.78149   1.79263   1.79716   1.81551
 Alpha virt. eigenvalues --    1.82018   1.83355   1.84036   1.85017   1.87659
 Alpha virt. eigenvalues --    1.88065   1.89624   1.90318   1.90681   1.91618
 Alpha virt. eigenvalues --    1.92326   1.93029   1.94686   1.95058   1.95739
 Alpha virt. eigenvalues --    1.97221   1.98262   1.98638   1.99624   1.99766
 Alpha virt. eigenvalues --    2.01940   2.02561   2.03014   2.03432   2.05902
 Alpha virt. eigenvalues --    2.06187   2.06685   2.07865   2.08760   2.09699
 Alpha virt. eigenvalues --    2.10266   2.11366   2.12215   2.12855   2.14169
 Alpha virt. eigenvalues --    2.15176   2.16276   2.17401   2.19863   2.21337
 Alpha virt. eigenvalues --    2.22129   2.23004   2.24991   2.25498   2.27916
 Alpha virt. eigenvalues --    2.28748   2.30235   2.32031   2.32601   2.32914
 Alpha virt. eigenvalues --    2.33665   2.36889   2.37473   2.40082   2.41367
 Alpha virt. eigenvalues --    2.42340   2.43587   2.44120   2.44970   2.47561
 Alpha virt. eigenvalues --    2.48708   2.49739   2.51160   2.51948   2.53613
 Alpha virt. eigenvalues --    2.55595   2.56306   2.56911   2.59562   2.60755
 Alpha virt. eigenvalues --    2.60979   2.64764   2.65159   2.68856   2.70707
 Alpha virt. eigenvalues --    2.72396   2.72820   2.74645   2.75303   2.76208
 Alpha virt. eigenvalues --    2.76356   2.78443   2.81314   2.82551   2.84617
 Alpha virt. eigenvalues --    2.88122   2.92060   2.94173   2.96867   2.99215
 Alpha virt. eigenvalues --    3.00036   3.00603   3.03662   3.09065   3.11574
 Alpha virt. eigenvalues --    3.12727   3.18899   3.21605   3.26078   3.34984
 Alpha virt. eigenvalues --    3.54890   3.55394   3.58457   3.59616   3.60572
 Alpha virt. eigenvalues --    3.65172   3.66520   3.68949   3.70319   3.77543
 Alpha virt. eigenvalues --    3.80970   3.84169   3.88488   3.92031   4.02515
 Alpha virt. eigenvalues --    4.03702   4.16432
          Condensed to atoms (all electrons):
               1          2          3          4          5          6
     1  C    8.271921  -0.328048  -1.781458  -0.054745  -0.841044  -0.007487
     2  H   -0.328048   2.140992  -0.002141  -0.007255   0.080920   0.018188
     3  C   -1.781458  -0.002141   9.158792  -0.391447  -2.702767  -0.224988
     4  H   -0.054745  -0.007255  -0.391447   2.077726   0.231311   0.027462
     5  C   -0.841044   0.080920  -2.702767   0.231311  12.959219  -0.379112
     6  H   -0.007487   0.018188  -0.224988   0.027462  -0.379112   2.826775
     7  N    0.364442  -0.025610   0.355330  -0.121295  -1.516855  -0.291794
     8  N   -0.065533  -0.192787   0.410024  -0.005957  -0.744781  -0.346840
     9  C   -0.310238  -0.043826   0.060195   0.009566  -0.427190   0.144319
    10  H    0.379370  -0.007329  -0.091487  -0.000199  -0.347240   0.003983
    11  H   -0.043115  -0.027885   0.041464  -0.001146   0.355167  -0.008048
    12  H   -0.174756   0.018236   0.012612  -0.000645  -0.011169   0.034744
    13  C   -0.121474   0.017092   0.135686  -0.142056  -0.748188  -0.110796
    14  H    0.100648   0.003821   0.147805  -0.020108  -0.014556  -0.001488
    15  H   -0.041053  -0.002675  -0.124960  -0.011356   0.301325   0.036308
    16  C    0.005009  -0.005985  -0.082403   0.048333  -0.057023   0.057809
    17  H   -0.011406   0.000764   0.011505  -0.040350   0.056019  -0.001950
    18  H   -0.032500   0.000297   0.060962   0.004014   0.058895   0.033773
    19  H    0.038668   0.000686  -0.096860   0.000732   0.026439   0.011269
    20  C   -0.027881   0.000791   0.035929  -0.000187  -0.076407  -0.046299
    21  O    0.008022   0.000810   0.035562  -0.000178  -0.109002   0.032692
    22  O    0.041781   0.002685  -0.007468  -0.000677  -0.051313  -0.016368
    23  C    0.002571   0.000379  -0.006869  -0.000950  -0.047372   0.032640
    24  H    0.001000   0.000059  -0.001433  -0.000138   0.000121  -0.005524
    25  H   -0.000323  -0.000056   0.000656   0.000010   0.002456   0.005433
    26  H    0.000074   0.000017   0.000613  -0.000016   0.000760  -0.001528
    27  H   -0.006097  -0.002992  -0.006351   0.000057   0.042449   0.008005
    28  O   -0.026746   0.015442   0.088643   0.000776  -0.253972   0.012407
    29  H    0.023991   0.006329   0.030654  -0.000257  -0.174703   0.009663
               7          8          9         10         11         12
     1  C    0.364442  -0.065533  -0.310238   0.379370  -0.043115  -0.174756
     2  H   -0.025610  -0.192787  -0.043826  -0.007329  -0.027885   0.018236
     3  C    0.355330   0.410024   0.060195  -0.091487   0.041464   0.012612
     4  H   -0.121295  -0.005957   0.009566  -0.000199  -0.001146  -0.000645
     5  C   -1.516855  -0.744781  -0.427190  -0.347240   0.355167  -0.011169
     6  H   -0.291794  -0.346840   0.144319   0.003983  -0.008048   0.034744
     7  N    8.029594  -0.292630  -0.052594   0.070474  -0.112512   0.107294
     8  N   -0.292630   7.931470   0.477975   0.255069  -0.506239   0.024744
     9  C   -0.052594   0.477975   4.266708   0.060449   0.083746   0.335170
    10  H    0.070474   0.255069   0.060449   1.724972  -0.412312  -0.400249
    11  H   -0.112512  -0.506239   0.083746  -0.412312   2.374960  -0.487669
    12  H    0.107294   0.024744   0.335170  -0.400249  -0.487669   1.937514
    13  C    0.620148   0.038277  -0.005982  -0.000019   0.004306   0.002940
    14  H   -0.391988  -0.129837  -0.004716   0.000496   0.001176  -0.000418
    15  H   -0.118282   0.083672   0.008409  -0.000402   0.002287  -0.002409
    16  C    0.036165  -0.000884   0.003239  -0.000929   0.000193  -0.001267
    17  H   -0.000510   0.039645   0.002302   0.000402  -0.000212  -0.000099
    18  H   -0.109094  -0.061898  -0.009062  -0.000530  -0.000239  -0.001699
    19  H    0.033302  -0.017196   0.000661   0.000255  -0.000013   0.000108
    20  C    0.052623   0.005891   0.022411   0.005444   0.007787  -0.026006
    21  O    0.042365   0.018160  -0.008727   0.000423  -0.002289  -0.002608
    22  O    0.012439  -0.011826  -0.040339   0.017034   0.003484   0.019074
    23  C   -0.005294  -0.001549  -0.001374   0.003681   0.000802  -0.012540
    24  H   -0.000906   0.001425  -0.001371  -0.000330   0.000043  -0.001054
    25  H   -0.002612   0.000387   0.005498   0.001428   0.000153  -0.003270
    26  H    0.002460  -0.002047   0.000621  -0.000121   0.000298   0.000604
    27  H   -0.007073   0.021066   0.003524   0.002874   0.003894  -0.008507
    28  O    0.045469  -0.044676   0.002450  -0.022887  -0.002475   0.033373
    29  H    0.023807   0.013304  -0.004794   0.005335  -0.021998   0.023161
              13         14         15         16         17         18
     1  C   -0.121474   0.100648  -0.041053   0.005009  -0.011406  -0.032500
     2  H    0.017092   0.003821  -0.002675  -0.005985   0.000764   0.000297
     3  C    0.135686   0.147805  -0.124960  -0.082403   0.011505   0.060962
     4  H   -0.142056  -0.020108  -0.011356   0.048333  -0.040350   0.004014
     5  C   -0.748188  -0.014556   0.301325  -0.057023   0.056019   0.058895
     6  H   -0.110796  -0.001488   0.036308   0.057809  -0.001950   0.033773
     7  N    0.620148  -0.391988  -0.118282   0.036165  -0.000510  -0.109094
     8  N    0.038277  -0.129837   0.083672  -0.000884   0.039645  -0.061898
     9  C   -0.005982  -0.004716   0.008409   0.003239   0.002302  -0.009062
    10  H   -0.000019   0.000496  -0.000402  -0.000929   0.000402  -0.000530
    11  H    0.004306   0.001176   0.002287   0.000193  -0.000212  -0.000239
    12  H    0.002940  -0.000418  -0.002409  -0.001267  -0.000099  -0.001699
    13  C    5.276053  -0.004625  -0.268642   0.159873  -0.074136   0.001072
    14  H   -0.004625   2.753612  -0.666585  -0.121514  -0.118839   0.167944
    15  H   -0.268642  -0.666585   2.390151  -0.003743   0.133571  -0.162483
    16  C    0.159873  -0.121514  -0.003743   4.298902   0.064551   0.414605
    17  H   -0.074136  -0.118839   0.133571   0.064551   1.908089  -0.326742
    18  H    0.001072   0.167944  -0.162483   0.414605  -0.326742   1.609749
    19  H    0.107493  -0.101918  -0.096212   0.187562  -0.385967  -0.313152
    20  C   -0.092813  -0.003526   0.038911   0.012353   0.002384  -0.035526
    21  O    0.012190   0.010426  -0.037284  -0.022198   0.011479  -0.019138
    22  O    0.026965   0.002245  -0.010178   0.002031  -0.000275   0.009228
    23  C    0.011114   0.003822  -0.002466   0.000574   0.001556   0.008983
    24  H    0.003129   0.000287   0.000864   0.002145   0.000726  -0.000580
    25  H    0.003814   0.000371   0.000374  -0.001059  -0.000095  -0.002054
    26  H   -0.009135  -0.000499  -0.000810   0.000355  -0.000188   0.002519
    27  H   -0.001537  -0.000201   0.000862  -0.002771  -0.001984  -0.000287
    28  O    0.040428  -0.000625  -0.000088  -0.007921   0.000284  -0.018809
    29  H    0.000391  -0.002046  -0.002952   0.001885   0.008108  -0.013630
              19         20         21         22         23         24
     1  C    0.038668  -0.027881   0.008022   0.041781   0.002571   0.001000
     2  H    0.000686   0.000791   0.000810   0.002685   0.000379   0.000059
     3  C   -0.096860   0.035929   0.035562  -0.007468  -0.006869  -0.001433
     4  H    0.000732  -0.000187  -0.000178  -0.000677  -0.000950  -0.000138
     5  C    0.026439  -0.076407  -0.109002  -0.051313  -0.047372   0.000121
     6  H    0.011269  -0.046299   0.032692  -0.016368   0.032640  -0.005524
     7  N    0.033302   0.052623   0.042365   0.012439  -0.005294  -0.000906
     8  N   -0.017196   0.005891   0.018160  -0.011826  -0.001549   0.001425
     9  C    0.000661   0.022411  -0.008727  -0.040339  -0.001374  -0.001371
    10  H    0.000255   0.005444   0.000423   0.017034   0.003681  -0.000330
    11  H   -0.000013   0.007787  -0.002289   0.003484   0.000802   0.000043
    12  H    0.000108  -0.026006  -0.002608   0.019074  -0.012540  -0.001054
    13  C    0.107493  -0.092813   0.012190   0.026965   0.011114   0.003129
    14  H   -0.101918  -0.003526   0.010426   0.002245   0.003822   0.000287
    15  H   -0.096212   0.038911  -0.037284  -0.010178  -0.002466   0.000864
    16  C    0.187562   0.012353  -0.022198   0.002031   0.000574   0.002145
    17  H   -0.385967   0.002384   0.011479  -0.000275   0.001556   0.000726
    18  H   -0.313152  -0.035526  -0.019138   0.009228   0.008983  -0.000580
    19  H    1.877322   0.007340  -0.002218  -0.001474   0.000929  -0.000134
    20  C    0.007340   5.613958  -0.082472   0.140518  -0.025961   0.036486
    21  O   -0.002218  -0.082472   8.835140   0.003258  -0.056094   0.063080
    22  O   -0.001474   0.140518   0.003258   8.830247  -0.198495   0.010310
    23  C    0.000929  -0.025961  -0.056094  -0.198495   4.782288   0.229990
    24  H   -0.000134   0.036486   0.063080   0.010310   0.229990   1.144148
    25  H    0.000039  -0.112277   0.068526  -0.055679   0.416331  -0.135393
    26  H    0.000096   0.489795  -0.244485   0.039202  -0.191974  -0.190448
    27  H   -0.000270   0.006891  -0.003217  -0.028559   0.000745  -0.001197
    28  O    0.003847   0.000498   0.009939  -0.015125  -0.002218   0.000947
    29  H   -0.001502  -0.042324   0.013259   0.083386  -0.007781   0.013634
              25         26         27         28         29
     1  C   -0.000323   0.000074  -0.006097  -0.026746   0.023991
     2  H   -0.000056   0.000017  -0.002992   0.015442   0.006329
     3  C    0.000656   0.000613  -0.006351   0.088643   0.030654
     4  H    0.000010  -0.000016   0.000057   0.000776  -0.000257
     5  C    0.002456   0.000760   0.042449  -0.253972  -0.174703
     6  H    0.005433  -0.001528   0.008005   0.012407   0.009663
     7  N   -0.002612   0.002460  -0.007073   0.045469   0.023807
     8  N    0.000387  -0.002047   0.021066  -0.044676   0.013304
     9  C    0.005498   0.000621   0.003524   0.002450  -0.004794
    10  H    0.001428  -0.000121   0.002874  -0.022887   0.005335
    11  H    0.000153   0.000298   0.003894  -0.002475  -0.021998
    12  H   -0.003270   0.000604  -0.008507   0.033373   0.023161
    13  C    0.003814  -0.009135  -0.001537   0.040428   0.000391
    14  H    0.000371  -0.000499  -0.000201  -0.000625  -0.002046
    15  H    0.000374  -0.000810   0.000862  -0.000088  -0.002952
    16  C   -0.001059   0.000355  -0.002771  -0.007921   0.001885
    17  H   -0.000095  -0.000188  -0.001984   0.000284   0.008108
    18  H   -0.002054   0.002519  -0.000287  -0.018809  -0.013630
    19  H    0.000039   0.000096  -0.000270   0.003847  -0.001502
    20  C   -0.112277   0.489795   0.006891   0.000498  -0.042324
    21  O    0.068526  -0.244485  -0.003217   0.009939   0.013259
    22  O   -0.055679   0.039202  -0.028559  -0.015125   0.083386
    23  C    0.416331  -0.191974   0.000745  -0.002218  -0.007781
    24  H   -0.135393  -0.190448  -0.001197   0.000947   0.013634
    25  H    1.289082  -0.272789   0.002109   0.000183  -0.017181
    26  H   -0.272789   1.700536  -0.000749   0.000820   0.002830
    27  H    0.002109  -0.000749   0.729566   0.287483  -0.183757
    28  O    0.000183   0.000820   0.287483   8.018241   0.322964
    29  H   -0.017181   0.002830  -0.183757   0.322964   0.591888
 Mulliken charges:
               1
     1  C    0.636407
     2  H   -0.660920
     3  C    0.934200
     4  H   -0.601026
     5  C    0.387609
     6  H   -0.853249
     7  N    0.253136
     8  N    0.103570
     9  C    1.422967
    10  H   -0.247655
    11  H   -0.253606
    12  H   -0.415207
    13  C    1.118430
    14  H   -0.609159
    15  H   -0.444155
    16  C    1.012116
    17  H   -0.278631
    18  H   -0.264620
    19  H   -0.279831
    20  C    0.091668
    21  O   -0.575419
    22  O   -0.806110
    23  C    1.064535
    24  H   -0.169885
    25  H   -0.194060
    26  H   -0.326811
    27  H    0.146022
    28  O   -0.488653
    29  H    0.298338
 Sum of Mulliken charges =   0.00000
 Mulliken charges with hydrogens summed into heavy atoms:
               1
     1  C   -0.024513
     3  C    0.333173
     5  C   -0.465639
     7  N    0.253136
     8  N    0.103570
     9  C    0.506498
    13  C    0.065115
    16  C    0.189034
    20  C    0.091668
    21  O   -0.575419
    22  O   -0.806110
    23  C    0.373779
    28  O   -0.044293
 Electronic spatial extent (au):  <R**2>=           2712.0181
 Charge=              0.0000 electrons
 Dipole moment (field-independent basis, Debye):
    X=              6.8229    Y=             -0.4429    Z=             -0.7559  Tot=              6.8789
 Quadrupole moment (field-independent basis, Debye-Ang):
   XX=            -76.4226   YY=            -71.3543   ZZ=            -78.1626
   XY=             -0.1004   XZ=             -2.0015   YZ=              2.8734
 Traceless Quadrupole moment (field-independent basis, Debye-Ang):
   XX=             -1.1094   YY=              3.9588   ZZ=             -2.8494
   XY=             -0.1004   XZ=             -2.0015   YZ=              2.8734
 Octapole moment (field-independent basis, Debye-Ang**2):
  XXX=             38.8115  YYY=            -11.8611  ZZZ=             21.6362  XYY=             28.7714
  XXY=             -2.2867  XXZ=             10.8363  XZZ=             -9.5426  YZZ=             -3.3615
  YYZ=             -4.3838  XYZ=             -5.4250
 Hexadecapole moment (field-independent basis, Debye-Ang**3):
 XXXX=          -1981.2976 YYYY=          -1084.4950 ZZZZ=           -328.7792 XXXY=             -5.3721
 XXXZ=             24.9915 YYYX=            -19.9504 YYYZ=             -0.9428 ZZZX=            -18.1634
 ZZZY=            -14.8555 XXYY=           -528.5271 XXZZ=           -419.2193 YYZZ=           -258.5706
 XXYZ=              4.4513 YYXZ=             -2.6442 ZZXY=              5.3035
 N-N= 8.810607828513D+02 E-N=-3.278796021274D+03  KE= 6.454762167628D+02
 1\1\GINC-NODE9\FOpt\RM062X\Aug-CC-pVDZ\C8H16N2O3\ROOT\08-Mar-2020\0\\#
 N M062X/aug-cc-pvdz OPT(tight) 5d 7f int(grid=ultrafine, exactbasistra
 nsform) scf(conver=10)\\RTIL FlatRev AnAbove Oxy Awy w/water\\0,1\C,-2
 .7622289337,0.4725034445,0.0455333032\H,-3.605528241,1.0442468694,0.40
 75343042\C,-2.5685348288,-0.872909468,-0.0482153681\H,-3.2142475882,-1
 .702334966,0.206511465\C,-0.7425814316,0.1305017602,-0.7603345254\H,0.
 2944836537,0.2642409227,-1.0550176886\N,-1.3047091694,-1.0587361156,-0
 .5624652074\N,-1.6118340697,1.0747825139,-0.4094250199\C,-1.2795393188
 ,2.4933315116,-0.3209782057\H,-1.5652401328,2.8443112359,0.6740784515\
 H,-1.8051668895,3.0537032013,-1.099901455\H,-0.1934141484,2.5809511411
 ,-0.4244041409\C,-0.5741481752,-2.329393196,-0.6644675728\H,-1.2557821
 892,-3.061901782,-1.1105971648\H,0.2686648108,-2.1462515803,-1.3362081
 765\C,-0.0659200609,-2.7593559656,0.7028830967\H,-0.8938421328,-2.8996
 010505,1.4083781027\H,0.6146152065,-1.9903252686,1.0821543585\H,0.4788
 106564,-3.7046213772,0.6034474667\C,2.4405198938,0.5075859809,-0.16650
 87888\O,2.0345926503,-0.6006235032,-0.5897786177\O,1.6966770947,1.4100
 904621,0.3376928546\C,3.9275015252,0.8250948421,-0.2512861706\H,4.3360
 761552,0.8571151154,0.7665864932\H,4.0667173014,1.8196207295,-0.689639
 6502\H,4.4541530523,0.0660317332,-0.8351393964\H,0.110391028,0.6140413
 814,2.8769812859\O,-0.2474612371,0.6344489182,1.9860648472\H,0.5181885
 189,0.9026295096,1.4101611194\\Version=ES64L-G09RevD.01\State=1-A\HF=-
 649.4984109\RMSD=3.298e-11\RMSF=4.896e-07\Dipole=-2.6709606,-0.3350756
 ,-0.2796446\Quadrupole=-0.6138846,2.9073896,-2.293505,-0.8728543,1.821
 5791,-1.604494\PG=C01 [X(C8H16N2O3)]\\@


 IT IS BY LOGIC THAT WE PROVE, BUT BY INTUITION THAT WE DISCOVER.
     -- J.H.POINCARE (1854-1912)
 Job cpu time:       5 days 21 hours 57 minutes 22.8 seconds.
 File lengths (MBytes):  RWF=    117 Int=      0 D2E=      0 Chk=     14 Scr=      1
 Normal termination of Gaussian 09 at Sun Mar  8 00:45:27 2020.
